<VTKFile type="UnstructuredGrid" version="0.1" byte_order="LittleEndian">
<UnstructuredGrid>
<Piece NumberOfPoints="2048" NumberOfCells="512">
<Points>
<DataArray type="Float64" NumberOfComponents="3" format="ascii">
0 0 0
0.125 0 0
0 0.125 0
0.125 0.125 0
0.125 0 0
0.25 0 0
0.125 0.125 0
0.25 0.125 0
0.125 0.125 0
0.25 0.125 0
0.125 0.25 0
0.25 0.25 0
0 0.125 0
0.125 0.125 0
0 0.25 0
0.125 0.25 0
0.25 0 0
0.375 0 0
0.25 0.125 0
0.375 0.125 0
0.375 0 0
0.5 0 0
0.375 0.125 0
0.5 0.125 0
0.375 0.125 0
0.5 0.125 0
0.375 0.25 0
0.5 0.25 0
0.25 0.125 0
0.375 0.125 0
0.25 0.25 0
0.375 0.25 0
0.25 0.25 0
0.375 0.25 0
0.25 0.375 0
0.375 0.375 0
0.375 0.25 0
0.5 0.25 0
0.375 0.375 0
0.5 0.375 0
0.375 0.375 0
0.5 0.375 0
0.375 0.5 0
0.5 0.5 0
0.25 0.375 0
0.375 0.375 0
0.25 0.5 0
0.375 0.5 0
0 0.25 0
0.125 0.25 0
0 0.375 0
0.125 0.375 0
0.125 0.25 0
0.25 0.25 0
0.125 0.375 0
0.25 0.375 0
0.125 0.375 0
0.25 0.375 0
0.125 0.5 0
0.25 0.5 0
0 0.375 0
0.125 0.375 0
0 0.5 0
0.125 0.5 0
0.5 0 0
0.625 0 0
0.5 0.125 0
0.625 0.125 0
0.625 0 0
0.75 0 0
0.625 0.125 0
0.75 0.125 0
0.625 0.125 0
0.75 0.125 0
0.625 0.25 0
0.75 0.25 0
0.5 0.125 0
0.625 0.125 0
0.5 0.25 0
0.625 0.25 0
0.75 0 0
0.875 0 0
0.75 0.125 0
0.875 0.125 0
0.875 0 0
1 0 0
0.875 0.125 0
1 0.125 0
0.875 0.125 0
1 0.125 0
0.875 0.25 0
1 0.25 0
0.75 0.125 0
0.875 0.125 0
0.75 0.25 0
0.875 0.25 0
0.75 0.25 0
0.875 0.25 0
0.75 0.375 0
0.875 0.375 0
0.875 0.25 0
1 0.25 0
0.875 0.375 0
1 0.375 0
0.875 0.375 0
1 0.375 0
0.875 0.5 0
1 0.5 0
0.75 0.375 0
0.875 0.375 0
0.75 0.5 0
0.875 0.5 0
0.5 0.25 0
0.625 0.25 0
0.5 0.375 0
0.625 0.375 0
0.625 0.25 0
0.75 0.25 0
0.625 0.375 0
0.75 0.375 0
0.625 0.375 0
0.75 0.375 0
0.625 0.5 0
0.75 0.5 0
0.5 0.375 0
0.625 0.375 0
0.5 0.5 0
0.625 0.5 0
0.5 0.5 0
0.625 0.5 0
0.5 0.625 0
0.625 0.625 0
0.625 0.5 0
0.75 0.5 0
0.625 0.625 0
0.75 0.625 0
0.625 0.625 0
0.75 0.625 0
0.625 0.75 0
0.75 0.75 0
0.5 0.625 0
0.625 0.625 0
0.5 0.75 0
0.625 0.75 0
0.75 0.5 0
0.875 0.5 0
0.75 0.625 0
0.875 0.625 0
0.875 0.5 0
1 0.5 0
0.875 0.625 0
1 0.625 0
0.875 0.625 0
1 0.625 0
0.875 0.75 0
1 0.75 0
0.75 0.625 0
0.875 0.625 0
0.75 0.75 0
0.875 0.75 0
0.75 0.75 0
0.875 0.75 0
0.75 0.875 0
0.875 0.875 0
0.875 0.75 0
1 0.75 0
0.875 0.875 0
1 0.875 0
0.875 0.875 0
1 0.875 0
0.875 1 0
1 1 0
0.75 0.875 0
0.875 0.875 0
0.75 1 0
0.875 1 0
0.5 0.75 0
0.625 0.75 0
0.5 0.875 0
0.625 0.875 0
0.625 0.75 0
0.75 0.75 0
0.625 0.875 0
0.75 0.875 0
0.625 0.875 0
0.75 0.875 0
0.625 1 0
0.75 1 0
0.5 0.875 0
0.625 0.875 0
0.5 1 0
0.625 1 0
0 0.5 0
0.125 0.5 0
0 0.625 0
0.125 0.625 0
0.125 0.5 0
0.25 0.5 0
0.125 0.625 0
0.25 0.625 0
0.125 0.625 0
0.25 0.625 0
0.125 0.75 0
0.25 0.75 0
0 0.625 0
0.125 0.625 0
0 0.75 0
0.125 0.75 0
0.25 0.5 0
0.375 0.5 0
0.25 0.625 0
0.375 0.625 0
0.375 0.5 0
0.5 0.5 0
0.375 0.625 0
0.5 0.625 0
0.375 0.625 0
0.5 0.625 0
0.375 0.75 0
0.5 0.75 0
0.25 0.625 0
0.375 0.625 0
0.25 0.75 0
0.375 0.75 0
0.25 0.75 0
0.375 0.75 0
0.25 0.875 0
0.375 0.875 0
0.375 0.75 0
0.5 0.75 0
0.375 0.875 0
0.5 0.875 0
0.375 0.875 0
0.5 0.875 0
0.375 1 0
0.5 1 0
0.25 0.875 0
0.375 0.875 0
0.25 1 0
0.375 1 0
0 0.75 0
0.125 0.75 0
0 0.875 0
0.125 0.875 0
0.125 0.75 0
0.25 0.75 0
0.125 0.875 0
0.25 0.875 0
0.125 0.875 0
0.25 0.875 0
0.125 1 0
0.25 1 0
0 0.875 0
0.125 0.875 0
0 1 0
0.125 1 0
1 0 0
1.125 0 0
1 0.125 0
1.125 0.125 0
1.125 0 0
1.25 0 0
1.125 0.125 0
1.25 0.125 0
1.125 0.125 0
1.25 0.125 0
1.125 0.25 0
1.25 0.25 0
1 0.125 0
1.125 0.125 0
1 0.25 0
1.125 0.25 0
1.25 0 0
1.375 0 0
1.25 0.125 0
1.375 0.125 0
1.375 0 0
1.5 0 0
1.375 0.125 0
1.5 0.125 0
1.375 0.125 0
1.5 0.125 0
1.375 0.25 0
1.5 0.25 0
1.25 0.125 0
1.375 0.125 0
1.25 0.25 0
1.375 0.25 0
1.25 0.25 0
1.375 0.25 0
1.25 0.375 0
1.375 0.375 0
1.375 0.25 0
1.5 0.25 0
1.375 0.375 0
1.5 0.375 0
1.375 0.375 0
1.5 0.375 0
1.375 0.5 0
1.5 0.5 0
1.25 0.375 0
1.375 0.375 0
1.25 0.5 0
1.375 0.5 0
1 0.25 0
1.125 0.25 0
1 0.375 0
1.125 0.375 0
1.125 0.25 0
1.25 0.25 0
1.125 0.375 0
1.25 0.375 0
1.125 0.375 0
1.25 0.375 0
1.125 0.5 0
1.25 0.5 0
1 0.375 0
1.125 0.375 0
1 0.5 0
1.125 0.5 0
1.5 0 0
1.625 0 0
1.5 0.125 0
1.625 0.125 0
1.625 0 0
1.75 0 0
1.625 0.125 0
1.75 0.125 0
1.625 0.125 0
1.75 0.125 0
1.625 0.25 0
1.75 0.25 0
1.5 0.125 0
1.625 0.125 0
1.5 0.25 0
1.625 0.25 0
1.75 0 0
1.875 0 0
1.75 0.125 0
1.875 0.125 0
1.875 0 0
2 0 0
1.875 0.125 0
2 0.125 0
1.875 0.125 0
2 0.125 0
1.875 0.25 0
2 0.25 0
1.75 0.125 0
1.875 0.125 0
1.75 0.25 0
1.875 0.25 0
1.75 0.25 0
1.875 0.25 0
1.75 0.375 0
1.875 0.375 0
1.875 0.25 0
2 0.25 0
1.875 0.375 0
2 0.375 0
1.875 0.375 0
2 0.375 0
1.875 0.5 0
2 0.5 0
1.75 0.375 0
1.875 0.375 0
1.75 0.5 0
1.875 0.5 0
1.5 0.25 0
1.625 0.25 0
1.5 0.375 0
1.625 0.375 0
1.625 0.25 0
1.75 0.25 0
1.625 0.375 0
1.75 0.375 0
1.625 0.375 0
1.75 0.375 0
1.625 0.5 0
1.75 0.5 0
1.5 0.375 0
1.625 0.375 0
1.5 0.5 0
1.625 0.5 0
1.5 0.5 0
1.625 0.5 0
1.5 0.625 0
1.625 0.625 0
1.625 0.5 0
1.75 0.5 0
1.625 0.625 0
1.75 0.625 0
1.625 0.625 0
1.75 0.625 0
1.625 0.75 0
1.75 0.75 0
1.5 0.625 0
1.625 0.625 0
1.5 0.75 0
1.625 0.75 0
1.75 0.5 0
1.875 0.5 0
1.75 0.625 0
1.875 0.625 0
1.875 0.5 0
2 0.5 0
1.875 0.625 0
2 0.625 0
1.875 0.625 0
2 0.625 0
1.875 0.75 0
2 0.75 0
1.75 0.625 0
1.875 0.625 0
1.75 0.75 0
1.875 0.75 0
1.75 0.75 0
1.875 0.75 0
1.75 0.875 0
1.875 0.875 0
1.875 0.75 0
2 0.75 0
1.875 0.875 0
2 0.875 0
1.875 0.875 0
2 0.875 0
1.875 1 0
2 1 0
1.75 0.875 0
1.875 0.875 0
1.75 1 0
1.875 1 0
1.5 0.75 0
1.625 0.75 0
1.5 0.875 0
1.625 0.875 0
1.625 0.75 0
1.75 0.75 0
1.625 0.875 0
1.75 0.875 0
1.625 0.875 0
1.75 0.875 0
1.625 1 0
1.75 1 0
1.5 0.875 0
1.625 0.875 0
1.5 1 0
1.625 1 0
1 0.5 0
1.125 0.5 0
1 0.625 0
1.125 0.625 0
1.125 0.5 0
1.25 0.5 0
1.125 0.625 0
1.25 0.625 0
1.125 0.625 0
1.25 0.625 0
1.125 0.75 0
1.25 0.75 0
1 0.625 0
1.125 0.625 0
1 0.75 0
1.125 0.75 0
1.25 0.5 0
1.375 0.5 0
1.25 0.625 0
1.375 0.625 0
1.375 0.5 0
1.5 0.5 0
1.375 0.625 0
1.5 0.625 0
1.375 0.625 0
1.5 0.625 0
1.375 0.75 0
1.5 0.75 0
1.25 0.625 0
1.375 0.625 0
1.25 0.75 0
1.375 0.75 0
1.25 0.75 0
1.375 0.75 0
1.25 0.875 0
1.375 0.875 0
1.375 0.75 0
1.5 0.75 0
1.375 0.875 0
1.5 0.875 0
1.375 0.875 0
1.5 0.875 0
1.375 1 0
1.5 1 0
1.25 0.875 0
1.375 0.875 0
1.25 1 0
1.375 1 0
1 0.75 0
1.125 0.75 0
1 0.875 0
1.125 0.875 0
1.125 0.75 0
1.25 0.75 0
1.125 0.875 0
1.25 0.875 0
1.125 0.875 0
1.25 0.875 0
1.125 1 0
1.25 1 0
1 0.875 0
1.125 0.875 0
1 1 0
1.125 1 0
2 0 0
2.125 0 0
2 0.125 0
2.125 0.125 0
2.125 0 0
2.25 0 0
2.125 0.125 0
2.25 0.125 0
2.125 0.125 0
2.25 0.125 0
2.125 0.25 0
2.25 0.25 0
2 0.125 0
2.125 0.125 0
2 0.25 0
2.125 0.25 0
2.25 0 0
2.375 0 0
2.25 0.125 0
2.375 0.125 0
2.375 0 0
2.5 0 0
2.375 0.125 0
2.5 0.125 0
2.375 0.125 0
2.5 0.125 0
2.375 0.25 0
2.5 0.25 0
2.25 0.125 0
2.375 0.125 0
2.25 0.25 0
2.375 0.25 0
2.25 0.25 0
2.375 0.25 0
2.25 0.375 0
2.375 0.375 0
2.375 0.25 0
2.5 0.25 0
2.375 0.375 0
2.5 0.375 0
2.375 0.375 0
2.5 0.375 0
2.375 0.5 0
2.5 0.5 0
2.25 0.375 0
2.375 0.375 0
2.25 0.5 0
2.375 0.5 0
2 0.25 0
2.125 0.25 0
2 0.375 0
2.125 0.375 0
2.125 0.25 0
2.25 0.25 0
2.125 0.375 0
2.25 0.375 0
2.125 0.375 0
2.25 0.375 0
2.125 0.5 0
2.25 0.5 0
2 0.375 0
2.125 0.375 0
2 0.5 0
2.125 0.5 0
2.5 0 0
2.625 0 0
2.5 0.125 0
2.625 0.125 0
2.625 0 0
2.75 0 0
2.625 0.125 0
2.75 0.125 0
2.625 0.125 0
2.75 0.125 0
2.625 0.25 0
2.75 0.25 0
2.5 0.125 0
2.625 0.125 0
2.5 0.25 0
2.625 0.25 0
2.75 0 0
2.875 0 0
2.75 0.125 0
2.875 0.125 0
2.875 0 0
3 0 0
2.875 0.125 0
3 0.125 0
2.875 0.125 0
3 0.125 0
2.875 0.25 0
3 0.25 0
2.75 0.125 0
2.875 0.125 0
2.75 0.25 0
2.875 0.25 0
2.75 0.25 0
2.875 0.25 0
2.75 0.375 0
2.875 0.375 0
2.875 0.25 0
3 0.25 0
2.875 0.375 0
3 0.375 0
2.875 0.375 0
3 0.375 0
2.875 0.5 0
3 0.5 0
2.75 0.375 0
2.875 0.375 0
2.75 0.5 0
2.875 0.5 0
2.5 0.25 0
2.625 0.25 0
2.5 0.375 0
2.625 0.375 0
2.625 0.25 0
2.75 0.25 0
2.625 0.375 0
2.75 0.375 0
2.625 0.375 0
2.75 0.375 0
2.625 0.5 0
2.75 0.5 0
2.5 0.375 0
2.625 0.375 0
2.5 0.5 0
2.625 0.5 0
2.5 0.5 0
2.625 0.5 0
2.5 0.625 0
2.625 0.625 0
2.625 0.5 0
2.75 0.5 0
2.625 0.625 0
2.75 0.625 0
2.625 0.625 0
2.75 0.625 0
2.625 0.75 0
2.75 0.75 0
2.5 0.625 0
2.625 0.625 0
2.5 0.75 0
2.625 0.75 0
2.75 0.5 0
2.875 0.5 0
2.75 0.625 0
2.875 0.625 0
2.875 0.5 0
3 0.5 0
2.875 0.625 0
3 0.625 0
2.875 0.625 0
3 0.625 0
2.875 0.75 0
3 0.75 0
2.75 0.625 0
2.875 0.625 0
2.75 0.75 0
2.875 0.75 0
2.75 0.75 0
2.875 0.75 0
2.75 0.875 0
2.875 0.875 0
2.875 0.75 0
3 0.75 0
2.875 0.875 0
3 0.875 0
2.875 0.875 0
3 0.875 0
2.875 1 0
3 1 0
2.75 0.875 0
2.875 0.875 0
2.75 1 0
2.875 1 0
2.5 0.75 0
2.625 0.75 0
2.5 0.875 0
2.625 0.875 0
2.625 0.75 0
2.75 0.75 0
2.625 0.875 0
2.75 0.875 0
2.625 0.875 0
2.75 0.875 0
2.625 1 0
2.75 1 0
2.5 0.875 0
2.625 0.875 0
2.5 1 0
2.625 1 0
2 0.5 0
2.125 0.5 0
2 0.625 0
2.125 0.625 0
2.125 0.5 0
2.25 0.5 0
2.125 0.625 0
2.25 0.625 0
2.125 0.625 0
2.25 0.625 0
2.125 0.75 0
2.25 0.75 0
2 0.625 0
2.125 0.625 0
2 0.75 0
2.125 0.75 0
2.25 0.5 0
2.375 0.5 0
2.25 0.625 0
2.375 0.625 0
2.375 0.5 0
2.5 0.5 0
2.375 0.625 0
2.5 0.625 0
2.375 0.625 0
2.5 0.625 0
2.375 0.75 0
2.5 0.75 0
2.25 0.625 0
2.375 0.625 0
2.25 0.75 0
2.375 0.75 0
2.25 0.75 0
2.375 0.75 0
2.25 0.875 0
2.375 0.875 0
2.375 0.75 0
2.5 0.75 0
2.375 0.875 0
2.5 0.875 0
2.375 0.875 0
2.5 0.875 0
2.375 1 0
2.5 1 0
2.25 0.875 0
2.375 0.875 0
2.25 1 0
2.375 1 0
2 0.75 0
2.125 0.75 0
2 0.875 0
2.125 0.875 0
2.125 0.75 0
2.25 0.75 0
2.125 0.875 0
2.25 0.875 0
2.125 0.875 0
2.25 0.875 0
2.125 1 0
2.25 1 0
2 0.875 0
2.125 0.875 0
2 1 0
2.125 1 0
3 0 0
3.125 0 0
3 0.125 0
3.125 0.125 0
3.125 0 0
3.25 0 0
3.125 0.125 0
3.25 0.125 0
3.125 0.125 0
3.25 0.125 0
3.125 0.25 0
3.25 0.25 0
3 0.125 0
3.125 0.125 0
3 0.25 0
3.125 0.25 0
3.25 0 0
3.375 0 0
3.25 0.125 0
3.375 0.125 0
3.375 0 0
3.5 0 0
3.375 0.125 0
3.5 0.125 0
3.375 0.125 0
3.5 0.125 0
3.375 0.25 0
3.5 0.25 0
3.25 0.125 0
3.375 0.125 0
3.25 0.25 0
3.375 0.25 0
3.25 0.25 0
3.375 0.25 0
3.25 0.375 0
3.375 0.375 0
3.375 0.25 0
3.5 0.25 0
3.375 0.375 0
3.5 0.375 0
3.375 0.375 0
3.5 0.375 0
3.375 0.5 0
3.5 0.5 0
3.25 0.375 0
3.375 0.375 0
3.25 0.5 0
[...]
<CellData Scalars="attribute">
<DataArray type="Int32" Name="attribute" format="ascii">
1
1
1
1
1
1
1
1
1
1
1
1
1
1
1
1
1
1
1
1
1
1
1
1
1
1
1
1
1
1
1
1
1
1
1
1
1
1
1
1
1
1
1
1
1
1
1
1
1
1
1
1
1
1
1
1
1
1
1
1
1
1
1
1
1
1
1
1
1
1
1
1
1
1
1
1
1
1
1
1
1
1
1
1
1
1
1
1
1
1
1
1
1
1
1
1
1
1
1
1
1
1
1
1
1
1
1
1
1
1
1
1
1
1
1
1
1
1
1
1
1
1
1
1
1
1
1
1
1
1
1
1
1
1
1
1
1
1
1
1
1
1
1
1
1
1
1
1
1
1
1
1
1
1
1
1
1
1
1
1
1
1
1
1
1
1
1
1
1
1
1
1
1
1
1
1
1
1
1
1
1
1
1
1
1
1
1
1
1
1
1
1
1
1
1
1
1
1
1
1
1
1
1
1
1
1
1
1
1
1
1
1
1
1
1
1
1
1
1
1
1
1
1
1
1
1
1
1
1
1
1
1
1
1
1
1
1
1
1
1
1
1
1
1
1
1
1
1
1
1
1
1
1
1
1
1
2
2
2
2
2
2
2
2
2
2
2
2
2
2
2
2
2
2
2
2
2
2
2
2
2
2
2
2
2
2
2
2
2
2
2
2
2
2
2
2
2
2
2
2
2
2
2
2
2
2
2
2
2
2
2
2
2
2
2
2
2
2
2
2
2
2
2
2
2
2
2
2
2
2
2
2
2
2
2
2
2
2
2
2
2
2
2
2
2
2
2
2
2
2
2
2
2
2
2
2
2
2
2
2
2
2
2
2
2
2
2
2
2
2
2
2
2
2
2
2
2
2
2
2
2
2
2
2
2
2
2
2
2
2
2
2
2
2
2
2
2
2
2
2
2
2
2
2
2
2
2
2
2
2
2
2
2
2
2
2
2
2
2
2
2
2
2
2
2
2
2
2
2
2
2
2
2
2
2
2
2
2
2
2
2
2
2
2
2
2
2
2
2
2
2
2
2
2
2
2
2
2
2
2
2
2
2
2
2
2
2
2
2
2
2
2
2
2
2
2
2
2
2
2
2
2
2
2
2
2
2
2
2
2
2
2
2
2
2
2
2
2
2
2
2
2
2
2
2
2
2
2
2
2
2
2
</DataArray>
</CellData>
<PointData >
<DataArray type="Float64" Name="Pressure" NumberOfComponents="1" format="ascii" >
-3.6228e-05
-7.64001e-09
-5.92825e-05
-1.26468e-08
-7.64001e-09
6.97942e-14
-1.26468e-08
1.2086e-13
-1.26468e-08
1.2086e-13
-8.49029e-09
8.20718e-14
-5.92825e-05
-1.26468e-08
-3.95217e-05
-8.49029e-09
6.97942e-14
-4.07727e-19
1.2086e-13
-7.27893e-19
-4.07727e-19
2.39003e-24
-7.27893e-19
4.42341e-24
-7.27893e-19
4.42341e-24
-5.06792e-19
3.16315e-24
1.2086e-13
-7.27893e-19
8.20718e-14
-5.06792e-19
8.20718e-14
-5.06792e-19
4.20576e-14
-2.5896e-19
-5.06792e-19
3.16315e-24
-2.5896e-19
1.61801e-24
-2.5896e-19
1.61801e-24
-8.56563e-21
5.13008e-26
4.20576e-14
-2.5896e-19
1.48112e-15
-8.56563e-21
-3.95217e-05
-8.49029e-09
-1.9761e-05
-4.31131e-09
-8.49029e-09
8.20718e-14
-4.31131e-09
4.20576e-14
-4.31131e-09
4.20576e-14
-9.54728e-11
1.48112e-15
-1.9761e-05
-4.31131e-09
-1.175e-10
-9.54728e-11
2.39003e-24
-7.13169e-30
4.42341e-24
-1.36785e-29
-7.13169e-30
3.58834e-35
-1.36785e-29
6.92119e-35
-1.36785e-29
6.92119e-35
-1.01314e-29
5.2001e-35
4.42341e-24
-1.36785e-29
3.16315e-24
-1.01314e-29
3.58834e-35
-4.29129e-41
6.92119e-35
-9.12074e-41
-4.29129e-41
3.09028e-46
-9.12074e-41
6.0502e-46
-9.12074e-41
6.0502e-46
-7.37089e-41
4.68491e-46
6.92119e-35
-9.12074e-41
5.2001e-35
-7.37089e-41
5.2001e-35
-7.37089e-41
2.70337e-35
-3.88613e-41
-7.37089e-41
4.68491e-46
-3.88613e-41
2.48787e-46
-3.88613e-41
2.48787e-46
-1.11946e-42
6.33381e-48
2.70337e-35
-3.88613e-41
7.7516e-37
-1.11946e-42
3.16315e-24
-1.01314e-29
1.61801e-24
-5.21418e-30
-1.01314e-29
5.2001e-35
-5.21418e-30
2.70337e-35
-5.21418e-30
2.70337e-35
-1.59154e-31
7.7516e-37
1.61801e-24
-5.21418e-30
5.13008e-26
-1.59154e-31
5.13008e-26
-1.59154e-31
-1.53724e-24
4.96612e-30
-1.59154e-31
7.7516e-37
4.96612e-30
-2.5851e-35
4.96612e-30
-2.5851e-35
1.00951e-29
-5.18635e-35
-1.53724e-24
4.96612e-30
-3.14829e-24
1.00951e-29
7.7516e-37
-1.11946e-42
-2.5851e-35
3.71652e-41
-1.11946e-42
6.33381e-48
3.71652e-41
-2.39397e-46
3.71652e-41
-2.39397e-46
7.35103e-41
-4.67732e-46
-2.5851e-35
3.71652e-41
-5.18635e-35
7.35103e-41
-5.18635e-35
7.35103e-41
-7.03161e-35
9.2596e-41
7.35103e-41
-4.67732e-46
9.2596e-41
-6.13485e-46
9.2596e-41
-6.13485e-46
4.38488e-41
-3.15009e-46
-7.03161e-35
9.2596e-41
-3.66909e-35
4.38488e-41
-3.14829e-24
1.00951e-29
-4.50222e-24
1.39112e-29
1.00951e-29
-5.18635e-35
1.39112e-29
-7.03161e-35
1.39112e-29
-7.03161e-35
7.30469e-30
-3.66909e-35
-4.50222e-24
1.39112e-29
-2.45284e-24
7.30469e-30
-1.175e-10
-9.54728e-11
1.97608e-05
4.15723e-09
-9.54728e-11
1.48112e-15
4.15723e-09
-3.96725e-14
4.15723e-09
-3.96725e-14
8.44679e-09
-8.14165e-14
1.97608e-05
4.15723e-09
3.95217e-05
8.44679e-09
1.48112e-15
-8.56563e-21
-3.96725e-14
2.45305e-19
-8.56563e-21
5.13008e-26
2.45305e-19
-1.53724e-24
2.45305e-19
-1.53724e-24
5.03615e-19
-3.14829e-24
-3.96725e-14
2.45305e-19
-8.14165e-14
5.03615e-19
-8.14165e-14
5.03615e-19
-1.23094e-13
7.41427e-19
5.03615e-19
-3.14829e-24
7.41427e-19
-4.50222e-24
7.41427e-19
-4.50222e-24
4.19251e-19
-2.45284e-24
-1.23094e-13
7.41427e-19
-7.20819e-14
4.19251e-19
3.95217e-05
8.44679e-09
5.92827e-05
1.27891e-08
8.44679e-09
-8.14165e-14
1.27891e-08
-1.23094e-13
1.27891e-08
-1.23094e-13
7.79077e-09
-7.20819e-14
5.92827e-05
1.27891e-08
3.62282e-05
7.79077e-09
3.09028e-46
5.63277e-53
6.0502e-46
1.83238e-53
5.63277e-53
1.76926e-57
1.83238e-53
3.43336e-57
1.83238e-53
3.43336e-57
-3.93952e-53
2.67957e-57
6.0502e-46
1.83238e-53
4.68491e-46
-3.93952e-53
1.76926e-57
1.83822e-63
3.43336e-57
3.10954e-63
1.83822e-63
6.80892e-69
3.10954e-63
1.29759e-68
3.10954e-63
1.29759e-68
2.14526e-63
1.00724e-68
3.43336e-57
3.10954e-63
2.67957e-57
2.14526e-63
2.67957e-57
2.14526e-63
1.44413e-57
1.11805e-63
2.14526e-63
1.00724e-68
1.11805e-63
5.46145e-69
1.11805e-63
5.46145e-69
1.87819e-65
1.03897e-70
1.44413e-57
1.11805e-63
3.19956e-59
1.87819e-65
4.68491e-46
-3.93952e-53
2.48787e-46
-2.64518e-53
-3.93952e-53
2.67957e-57
-2.64518e-53
1.44413e-57
-2.64518e-53
1.44413e-57
-1.45754e-54
3.19956e-59
2.48787e-46
-2.64518e-53
6.33381e-48
-1.45754e-54
6.80892e-69
8.61339e-75
1.29759e-68
1.54381e-74
8.61339e-75
1.55628e-80
1.54381e-74
2.92316e-80
1.54381e-74
2.92316e-80
1.1341e-74
2.25347e-80
1.29759e-68
1.54381e-74
1.00724e-68
1.1341e-74
1.55628e-80
1.60788e-86
2.92316e-80
2.93567e-86
1.60788e-86
1.46718e-92
2.93567e-86
2.73309e-92
2.93567e-86
2.73309e-92
2.20516e-86
2.09886e-92
2.92316e-80
2.93567e-86
2.25347e-80
2.20516e-86
2.25347e-80
2.20516e-86
1.22356e-80
1.18554e-86
2.20516e-86
2.09886e-92
1.18554e-86
1.13985e-92
1.18554e-86
1.13985e-92
1.70498e-88
1.59688e-94
1.22356e-80
1.18554e-86
1.99348e-82
1.70498e-88
1.00724e-68
1.1341e-74
5.46145e-69
6.03845e-75
1.1341e-74
2.25347e-80
6.03845e-75
1.22356e-80
6.03845e-75
1.22356e-80
9.70118e-77
1.99348e-82
5.46145e-69
6.03845e-75
1.03897e-70
9.70118e-77
1.03897e-70
9.70118e-77
-5.31191e-69
-5.90119e-75
9.70118e-77
1.99348e-82
-5.90119e-75
-1.19506e-80
-5.90119e-75
-1.19506e-80
-1.13447e-74
-2.25268e-80
-5.31191e-69
-5.90119e-75
-1.00661e-68
-1.13447e-74
1.99348e-82
1.70498e-88
-1.19506e-80
-1.16143e-86
1.70498e-88
1.59688e-94
-1.16143e-86
-1.11713e-92
-1.16143e-86
-1.11713e-92
-2.2055e-86
-2.09848e-92
-1.19506e-80
-1.16143e-86
-2.25268e-80
-2.2055e-86
-2.25268e-80
-2.2055e-86
-2.95006e-80
-2.96109e-86
-2.2055e-86
-2.09848e-92
-2.96109e-86
-2.75504e-92
-2.96109e-86
-2.75504e-92
-1.626e-86
-1.48275e-92
-2.95006e-80
-2.96109e-86
-1.57534e-80
-1.626e-86
-1.00661e-68
-1.13447e-74
-1.31129e-68
-1.55913e-74
-1.13447e-74
-2.25268e-80
-1.55913e-74
-2.95006e-80
-1.55913e-74
-2.95006e-80
-8.72387e-75
-1.57534e-80
-1.31129e-68
-1.55913e-74
-6.90565e-69
-8.72387e-75
6.33381e-48
-1.45754e-54
-2.39397e-46
2.41733e-53
-1.45754e-54
3.19956e-59
2.41733e-53
-1.39756e-57
2.41733e-53
-1.39756e-57
3.86778e-53
-2.67679e-57
-2.39397e-46
2.41733e-53
-4.67732e-46
3.86778e-53
3.19956e-59
1.87819e-65
-1.39756e-57
-1.09161e-63
1.87819e-65
1.03897e-70
-1.09161e-63
-5.31191e-69
-1.09161e-63
-5.31191e-69
-2.14727e-63
-1.00661e-68
-1.39756e-57
-1.09161e-63
-2.67679e-57
-2.14727e-63
-2.67679e-57
-2.14727e-63
-3.47511e-57
-3.14463e-63
-2.14727e-63
-1.00661e-68
-3.14463e-63
-1.31129e-68
-3.14463e-63
-1.31129e-68
-1.86457e-63
-6.90565e-69
-3.47511e-57
-3.14463e-63
-1.79859e-57
-1.86457e-63
-4.67732e-46
3.86778e-53
-6.13485e-46
-1.84051e-53
3.86778e-53
-2.67679e-57
-1.84051e-53
-3.47511e-57
-1.84051e-53
-3.47511e-57
-5.68741e-53
-1.79859e-57
-6.13485e-46
-1.84051e-53
-3.15009e-46
-5.68741e-53
1.46718e-92
4.73524e-99
2.73309e-92
8.70959e-99
4.73524e-99
-9.03079e-105
8.70959e-99
-1.67538e-104
8.70959e-99
-1.67538e-104
6.61187e-99
-1.28503e-104
2.73309e-92
8.70959e-99
2.09886e-92
6.61187e-99
-9.03079e-105
-2.00705e-110
-1.67538e-104
-3.70279e-110
-2.00705e-110
-2.15787e-116
-3.70279e-110
-3.99532e-116
-3.70279e-110
-3.99532e-116
-2.82666e-110
-3.06487e-116
-1.67538e-104
-3.70279e-110
-1.28503e-104
-2.82666e-110
-1.28503e-104
-2.82666e-110
-6.98025e-105
-1.5321e-110
-2.82666e-110
-3.06487e-116
-1.5321e-110
-1.66534e-116
-1.5321e-110
-1.66534e-116
-1.7038e-112
-1.74982e-118
-6.98025e-105
-1.5321e-110
-8.45179e-107
-1.7038e-112
2.09886e-92
6.61187e-99
1.13985e-92
3.57338e-99
6.61187e-99
-1.28503e-104
3.57338e-99
-6.98025e-105
3.57338e-99
-6.98025e-105
4.53168e-101
-8.45179e-107
1.13985e-92
3.57338e-99
1.59688e-94
4.53168e-101
-2.15787e-116
-1.0474e-122
-3.99532e-116
-1.93453e-122
-1.0474e-122
6.25692e-129
-1.93453e-122
1.1573e-128
-1.93453e-122
1.1573e-128
-1.48141e-122
8.8833e-129
-3.99532e-116
-1.93453e-122
-3.06487e-116
-1.48141e-122
6.25692e-129
1.73204e-134
1.1573e-128
3.20007e-134
1.73204e-134
1.5409e-140
3.20007e-134
2.84837e-140
3.20007e-134
2.84837e-140
2.45508e-134
2.18792e-140
1.1573e-128
3.20007e-134
8.8833e-129
2.45508e-134
8.8833e-129
2.45508e-134
4.82829e-129
1.33394e-134
2.45508e-134
2.18792e-140
1.33394e-134
1.18944e-140
1.33394e-134
1.18944e-140
1.13426e-136
9.47924e-143
4.82829e-129
1.33394e-134
4.41431e-131
1.13426e-136
-3.06487e-116
-1.48141e-122
-1.66534e-116
-8.04221e-123
-1.48141e-122
8.8833e-129
-8.04221e-123
4.82829e-129
-8.04221e-123
4.82829e-129
-7.82407e-125
4.41431e-131
-1.66534e-116
-8.04221e-123
-1.74982e-118
-7.82407e-125
-1.74982e-118
-7.82407e-125
1.64055e-116
7.93159e-123
-7.82407e-125
4.41431e-131
7.93159e-123
-4.7658e-129
7.93159e-123
-4.7658e-129
1.48143e-122
-8.88306e-129
1.64055e-116
7.93159e-123
3.06473e-116
1.48143e-122
4.41431e-131
1.13426e-136
-4.7658e-129
-1.31789e-134
1.13426e-136
9.47924e-143
-1.31789e-134
-1.17602e-140
-1.31789e-134
-1.17602e-140
-2.45508e-134
-2.18787e-140
-4.7658e-129
-1.31789e-134
-8.88306e-129
-2.45508e-134
-8.88306e-129
-2.45508e-134
-1.16348e-128
-3.21606e-134
-2.45508e-134
-2.18787e-140
-3.21606e-134
-2.86165e-140
-3.21606e-134
-2.86165e-140
-1.74336e-134
-1.55031e-140
-1.16348e-128
-3.21606e-134
-6.30072e-129
-1.74336e-134
3.06473e-116
1.48143e-122
4.01978e-116
1.94562e-122
1.48143e-122
-8.88306e-129
1.94562e-122
-1.16348e-128
1.94562e-122
-1.16348e-128
1.05525e-122
-6.30072e-129
4.01978e-116
1.94562e-122
2.17521e-116
1.05525e-122
1.59688e-94
4.53168e-101
-1.11713e-92
-3.50931e-99
4.53168e-101
-8.45179e-107
-3.50931e-99
6.86032e-105
-3.50931e-99
6.86032e-105
-6.61238e-99
1.28492e-104
-1.11713e-92
-3.50931e-99
-2.09848e-92
-6.61238e-99
-8.45179e-107
-1.7038e-112
6.86032e-105
1.50801e-110
-1.7038e-112
-1.74982e-118
1.50801e-110
1.64055e-116
1.50801e-110
1.64055e-116
2.82676e-110
3.06473e-116
6.86032e-105
1.50801e-110
1.28492e-104
2.82676e-110
1.28492e-104
2.82676e-110
1.68712e-104
3.72714e-110
2.82676e-110
3.06473e-116
3.72714e-110
4.01978e-116
3.72714e-110
4.01978e-116
2.02431e-110
2.17521e-116
1.68712e-104
3.72714e-110
9.11411e-105
2.02431e-110
-2.09848e-92
-6.61238e-99
-2.75504e-92
-8.77533e-99
-6.61238e-99
1.28492e-104
-8.77533e-99
1.68712e-104
-8.77533e-99
1.68712e-104
-4.78188e-99
9.11411e-105
-2.75504e-92
-8.77533e-99
-1.48275e-92
-4.78188e-99
1.5409e-140
3.42103e-147
2.84837e-140
6.32032e-147
3.42103e-147
-8.05112e-153
6.32032e-147
-1.48762e-152
6.32032e-147
-1.48762e-152
4.85463e-147
-1.1434e-152
2.84837e-140
6.32032e-147
2.18792e-140
4.85463e-147
-8.05112e-153
-1.05128e-158
-1.48762e-152
-1.94185e-158
-1.05128e-158
-4.45148e-165
-1.94185e-158
-8.22216e-165
-1.94185e-158
-8.22216e-165
-1.49271e-158
-6.32292e-165
-1.48762e-152
-1.94185e-158
-1.1434e-152
-1.49271e-158
-1.1434e-152
-1.49271e-158
-6.21671e-153
-8.11542e-159
-1.49271e-158
-6.32292e-165
-8.11542e-159
-3.43792e-165
-8.11542e-159
-3.43792e-165
-5.26963e-161
-2.08848e-167
-6.21671e-153
-8.11542e-159
-4.32373e-155
-5.26963e-161
2.18792e-140
4.85463e-147
1.18944e-140
2.63883e-147
4.85463e-147
-1.1434e-152
2.63883e-147
-6.21671e-153
2.63883e-147
-6.21671e-153
1.96073e-149
-4.32373e-155
1.18944e-140
2.63883e-147
9.47924e-143
1.96073e-149
-4.45148e-165
2.83221e-171
-8.22216e-165
5.23016e-171
2.83221e-171
5.13843e-177
5.23016e-171
9.48807e-177
5.23016e-171
9.48807e-177
4.02266e-171
7.29941e-177
-8.22216e-165
5.23016e-171
-6.32292e-165
4.02266e-171
5.13843e-177
2.45771e-183
9.48807e-177
4.53739e-183
2.45771e-183
-1.0003e-189
4.53739e-183
-1.84654e-189
4.53739e-183
-1.84654e-189
3.49123e-183
-1.42104e-189
9.48807e-177
4.53739e-183
7.29941e-177
3.49123e-183
7.29941e-177
3.49123e-183
3.96876e-177
1.89813e-183
3.49123e-183
-1.42104e-189
1.89813e-183
-7.72586e-190
1.89813e-183
-7.72586e-190
9.42156e-186
-3.58709e-192
3.96876e-177
1.89813e-183
2.10718e-179
9.42156e-186
-6.32292e-165
4.02266e-171
-3.43792e-165
2.18712e-171
4.02266e-171
7.29941e-177
2.18712e-171
3.96876e-177
2.18712e-171
3.96876e-177
1.24144e-173
2.10718e-179
-3.43792e-165
2.18712e-171
-2.08848e-167
1.24144e-173
-2.08848e-167
1.24144e-173
3.40834e-165
-2.16954e-171
1.24144e-173
2.10718e-179
-2.16954e-171
-3.9389e-177
-2.16954e-171
-3.9389e-177
-4.02256e-171
-7.2992e-177
3.40834e-165
-2.16954e-171
6.32276e-165
-4.02256e-171
2.10718e-179
9.42156e-186
-3.9389e-177
-1.88478e-183
9.42156e-186
-3.58709e-192
-1.88478e-183
7.675e-190
-1.88478e-183
7.675e-190
-3.49112e-183
1.421e-189
-3.9389e-177
-1.88478e-183
-7.2992e-177
-3.49112e-183
-7.2992e-177
-3.49112e-183
-9.5174e-177
-4.55049e-183
-3.49112e-183
1.421e-189
-4.55049e-183
1.85151e-189
-4.55049e-183
1.85151e-189
-2.46698e-183
1.00383e-189
-9.5174e-177
-4.55049e-183
-5.1592e-177
-2.46698e-183
6.32276e-165
-4.02256e-171
8.25131e-165
-5.24748e-171
-4.02256e-171
-7.2992e-177
-5.24748e-171
-9.5174e-177
-5.24748e-171
-9.5174e-177
-2.84447e-171
-5.1592e-177
8.25131e-165
-5.24748e-171
4.47212e-165
-2.84447e-171
9.47924e-143
1.96073e-149
-1.17602e-140
-2.61109e-147
1.96073e-149
-4.32373e-155
-2.61109e-147
6.1555e-153
-2.61109e-147
6.1555e-153
-4.85458e-147
1.14337e-152
-1.17602e-140
-2.61109e-147
-2.18787e-140
-4.85458e-147
-4.32373e-155
-5.26963e-161
6.1555e-153
8.04083e-159
-5.26963e-161
-2.08848e-167
8.04083e-159
3.40834e-165
8.04083e-159
3.40834e-165
1.49268e-158
6.32276e-165
6.1555e-153
8.04083e-159
1.14337e-152
1.49268e-158
1.14337e-152
1.49268e-158
1.49366e-152
1.94922e-158
1.49268e-158
6.32276e-165
1.94922e-158
8.25131e-165
1.94922e-158
8.25131e-165
1.0565e-158
4.47212e-165
1.49366e-152
1.94922e-158
8.09395e-153
1.0565e-158
-2.18787e-140
-4.85458e-147
-2.86165e-140
-6.34785e-147
-4.85458e-147
1.14337e-152
-6.34785e-147
1.49366e-152
-6.34785e-147
1.49366e-152
-3.44053e-147
8.09395e-153
-2.86165e-140
-6.34785e-147
-1.55031e-140
-3.44053e-147
-1.0003e-189
-2.02608e-195
-1.84654e-189
-3.73959e-195
-2.02608e-195
-8.76327e-202
-3.73959e-195
-1.61727e-201
-3.73959e-195
-1.61727e-201
-2.87823e-195
-1.24492e-201
-1.84654e-189
-3.73959e-195
-1.42104e-189
-2.87823e-195
-8.76327e-202
4.11266e-208
-1.61727e-201
7.58903e-208
4.11266e-208
6.56627e-214
7.58903e-208
1.21153e-213
7.58903e-208
1.21153e-213
5.84235e-208
9.3278e-214
-1.61727e-201
7.58903e-208
-1.24492e-201
5.84235e-208
-1.24492e-201
5.84235e-208
-6.76771e-202
3.1759e-208
5.84235e-208
9.3278e-214
3.1759e-208
5.07035e-214
3.1759e-208
5.07035e-214
1.20693e-210
1.80303e-216
-6.76771e-202
3.1759e-208
-2.74927e-204
1.20693e-210
-1.42104e-189
-2.87823e-195
-7.72586e-190
-1.56475e-195
-2.87823e-195
-1.24492e-201
-1.56475e-195
-6.76771e-202
-1.56475e-195
-6.76771e-202
-6.79444e-198
-2.74927e-204
-7.72586e-190
-1.56475e-195
-3.58709e-192
-6.79444e-198
6.56627e-214
2.02081e-220
1.21153e-213
3.72816e-220
2.02081e-220
-1.63907e-226
3.72816e-220
-3.02361e-226
3.72816e-220
-3.02361e-226
2.8706e-220
-2.32829e-226
1.21153e-213
3.72816e-220
9.3278e-214
2.8706e-220
-1.63907e-226
-1.67238e-232
-3.02361e-226
-3.08475e-232
-1.67238e-232
-2.06558e-239
-3.08475e-232
-3.80969e-239
-3.08475e-232
-3.80969e-239
-2.37553e-232
-2.93397e-239
-3.02361e-226
-3.08475e-232
-2.32829e-226
-2.37553e-232
-2.32829e-226
-2.37553e-232
-1.26547e-226
-1.29108e-232
-2.37553e-232
-2.93397e-239
-1.29108e-232
-1.59451e-239
-1.29108e-232
-1.59451e-239
-3.76382e-235
-4.35184e-242
-1.26547e-226
-1.29108e-232
-3.94124e-229
-3.76382e-235
9.3278e-214
2.8706e-220
5.07035e-214
1.56031e-220
2.8706e-220
-2.32829e-226
1.56031e-220
-1.26547e-226
1.56031e-220
-1.26547e-226
5.19213e-223
-3.94124e-229
5.07035e-214
1.56031e-220
1.80303e-216
5.19213e-223
1.80303e-216
5.19213e-223
-5.04475e-214
-1.55293e-220
5.19213e-223
-3.94124e-229
-1.55293e-220
1.25987e-226
-1.55293e-220
1.25987e-226
-2.87049e-220
2.32819e-226
-5.04475e-214
-1.55293e-220
-9.32743e-214
-2.87049e-220
-3.94124e-229
-3.76382e-235
1.25987e-226
1.28573e-232
-3.76382e-235
-4.35184e-242
1.28573e-232
1.58832e-239
1.28573e-232
1.58832e-239
2.37543e-232
2.93384e-239
1.25987e-226
1.28573e-232
2.32819e-226
2.37543e-232
2.32819e-226
2.37543e-232
3.029e-226
3.08988e-232
2.37543e-232
2.93384e-239
3.08988e-232
3.81561e-239
3.08988e-232
3.81561e-239
1.67601e-232
2.06977e-239
3.029e-226
3.08988e-232
1.64289e-226
1.67601e-232
-9.32743e-214
-2.87049e-220
-1.21401e-213
-3.73528e-220
-2.87049e-220
2.32819e-226
-3.73528e-220
3.029e-226
-3.73528e-220
3.029e-226
-2.02585e-220
1.64289e-226
-1.21401e-213
-3.73528e-220
-6.58383e-214
-2.02585e-220
-3.58709e-192
-6.79444e-198
7.675e-190
1.55511e-195
-6.79444e-198
-2.74927e-204
1.55511e-195
6.7287e-202
1.55511e-195
6.7287e-202
2.87813e-195
1.24487e-201
7.675e-190
1.55511e-195
1.421e-189
2.87813e-195
-2.74927e-204
1.20693e-210
6.7287e-202
-3.15877e-208
1.20693e-210
1.80303e-216
-3.15877e-208
-5.04475e-214
-3.15877e-208
-5.04475e-214
-5.84213e-208
-9.32743e-214
6.7287e-202
-3.15877e-208
1.24487e-201
-5.84213e-208
1.24487e-201
-5.84213e-208
1.62107e-201
-7.60567e-208
-5.84213e-208
-9.32743e-214
-7.60567e-208
-1.21401e-213
-7.60567e-208
-1.21401e-213
-4.12444e-208
-6.58383e-214
1.62107e-201
-7.60567e-208
8.79016e-202
-4.12444e-208
1.421e-189
2.87813e-195
1.85151e-189
3.749e-195
2.87813e-195
1.24487e-201
3.749e-195
1.62107e-201
3.749e-195
1.62107e-201
2.03275e-195
8.79016e-202
1.85151e-189
3.749e-195
1.00383e-189
2.03275e-195
-2.06558e-239
5.1458e-245
-3.80969e-239
9.48992e-245
5.1458e-245
3.03802e-251
9.48992e-245
5.60229e-251
9.48992e-245
5.60229e-251
7.30891e-245
4.31497e-251
-3.80969e-239
9.48992e-245
-2.93397e-239
7.30891e-245
3.03802e-251
-4.24143e-258
5.60229e-251
-7.82087e-258
-4.24143e-258
-1.14345e-263
-7.82087e-258
-2.10829e-263
-7.82087e-258
-2.10829e-263
-6.02402e-258
-1.62397e-263
5.60229e-251
-7.82087e-258
4.31497e-251
-6.02402e-258
4.31497e-251
-6.02402e-258
2.34482e-251
-3.2734e-258
-6.02402e-258
-1.62397e-263
-3.2734e-258
-8.82412e-264
-3.2734e-258
-8.82412e-264
-7.33725e-261
-1.85291e-266
2.34482e-251
-3.2734e-258
5.61146e-254
-7.33725e-261
-2.93397e-239
7.30891e-245
-1.59451e-239
3.97195e-245
7.30891e-245
4.31497e-251
3.97195e-245
2.34482e-251
3.97195e-245
2.34482e-251
1.01501e-247
5.61146e-254
-1.59451e-239
3.97195e-245
-4.35184e-242
1.01501e-247
-1.14345e-263
-3.10004e-270
-2.10829e-263
-5.71545e-270
-3.10004e-270
2.2112e-276
-5.71545e-270
4.07646e-276
-5.71545e-270
4.07646e-276
-4.40265e-270
3.14023e-276
-2.10829e-263
-5.71545e-270
-1.62397e-263
-4.40265e-270
2.2112e-276
1.6306e-282
4.07646e-276
3.00592e-282
1.6306e-282
-5.6203e-290
3.00592e-282
-1.03602e-289
3.00592e-282
-1.03602e-289
2.31563e-282
-7.98128e-290
4.07646e-276
3.00592e-282
3.14023e-276
2.31563e-282
3.14023e-276
2.31563e-282
1.70616e-276
1.25809e-282
2.31563e-282
-7.98128e-290
1.25809e-282
-4.33611e-290
1.25809e-282
-4.33611e-290
2.17442e-285
-7.02594e-293
1.70616e-276
1.25809e-282
3.1459e-279
2.17442e-285
-1.62397e-263
-4.40265e-270
-8.82412e-264
-2.39216e-270
-4.40265e-270
3.14023e-276
-2.39216e-270
1.70616e-276
-2.39216e-270
1.70616e-276
-4.70655e-273
3.1459e-279
-8.82412e-264
-2.39216e-270
-1.85291e-266
-4.70655e-273
-1.85291e-266
-4.70655e-273
8.79768e-264
2.38544e-270
-4.70655e-273
3.1459e-279
2.38544e-270
-1.70167e-276
2.38544e-270
-1.70167e-276
4.40243e-270
-3.14007e-276
8.79768e-264
2.38544e-270
1.62389e-263
4.40243e-270
3.1459e-279
2.17442e-285
-1.70167e-276
-1.25498e-282
2.17442e-285
-7.02594e-293
-1.25498e-282
4.32605e-290
-1.25498e-282
4.32605e-290
-2.31551e-282
7.98086e-290
-1.70167e-276
-1.25498e-282
-3.14007e-276
-2.31551e-282
-3.14007e-276
-2.31551e-282
-4.08063e-276