<VTKFile type="UnstructuredGrid" version="0.1" byte_order="LittleEndian">
<UnstructuredGrid>
<Piece NumberOfPoints="2048" NumberOfCells="512">
<Points>
<DataArray type="Float64" NumberOfComponents="3" format="ascii">
0 0 0
0.125 0 0
0 0.125 0
0.125 0.125 0
0.125 0 0
0.25 0 0
0.125 0.125 0
0.25 0.125 0
0.125 0.125 0
0.25 0.125 0
0.125 0.25 0
0.25 0.25 0
0 0.125 0
0.125 0.125 0
0 0.25 0
0.125 0.25 0
0.25 0 0
0.375 0 0
0.25 0.125 0
0.375 0.125 0
0.375 0 0
0.5 0 0
0.375 0.125 0
0.5 0.125 0
0.375 0.125 0
0.5 0.125 0
0.375 0.25 0
0.5 0.25 0
0.25 0.125 0
0.375 0.125 0
0.25 0.25 0
0.375 0.25 0
0.25 0.25 0
0.375 0.25 0
0.25 0.375 0
0.375 0.375 0
0.375 0.25 0
0.5 0.25 0
0.375 0.375 0
0.5 0.375 0
0.375 0.375 0
0.5 0.375 0
0.375 0.5 0
0.5 0.5 0
0.25 0.375 0
0.375 0.375 0
0.25 0.5 0
0.375 0.5 0
0 0.25 0
0.125 0.25 0
0 0.375 0
0.125 0.375 0
0.125 0.25 0
0.25 0.25 0
0.125 0.375 0
0.25 0.375 0
0.125 0.375 0
0.25 0.375 0
0.125 0.5 0
0.25 0.5 0
0 0.375 0
0.125 0.375 0
0 0.5 0
0.125 0.5 0
0.5 0 0
0.625 0 0
0.5 0.125 0
0.625 0.125 0
0.625 0 0
0.75 0 0
0.625 0.125 0
0.75 0.125 0
0.625 0.125 0
0.75 0.125 0
0.625 0.25 0
0.75 0.25 0
0.5 0.125 0
0.625 0.125 0
0.5 0.25 0
0.625 0.25 0
0.75 0 0
0.875 0 0
0.75 0.125 0
0.875 0.125 0
0.875 0 0
1 0 0
0.875 0.125 0
1 0.125 0
0.875 0.125 0
1 0.125 0
0.875 0.25 0
1 0.25 0
0.75 0.125 0
0.875 0.125 0
0.75 0.25 0
0.875 0.25 0
0.75 0.25 0
0.875 0.25 0
0.75 0.375 0
0.875 0.375 0
0.875 0.25 0
1 0.25 0
0.875 0.375 0
1 0.375 0
0.875 0.375 0
1 0.375 0
0.875 0.5 0
1 0.5 0
0.75 0.375 0
0.875 0.375 0
0.75 0.5 0
0.875 0.5 0
0.5 0.25 0
0.625 0.25 0
0.5 0.375 0
0.625 0.375 0
0.625 0.25 0
0.75 0.25 0
0.625 0.375 0
0.75 0.375 0
0.625 0.375 0
0.75 0.375 0
0.625 0.5 0
0.75 0.5 0
0.5 0.375 0
0.625 0.375 0
0.5 0.5 0
0.625 0.5 0
0.5 0.5 0
0.625 0.5 0
0.5 0.625 0
0.625 0.625 0
0.625 0.5 0
0.75 0.5 0
0.625 0.625 0
0.75 0.625 0
0.625 0.625 0
0.75 0.625 0
0.625 0.75 0
0.75 0.75 0
0.5 0.625 0
0.625 0.625 0
0.5 0.75 0
0.625 0.75 0
0.75 0.5 0
0.875 0.5 0
0.75 0.625 0
0.875 0.625 0
0.875 0.5 0
1 0.5 0
0.875 0.625 0
1 0.625 0
0.875 0.625 0
1 0.625 0
0.875 0.75 0
1 0.75 0
0.75 0.625 0
0.875 0.625 0
0.75 0.75 0
0.875 0.75 0
0.75 0.75 0
0.875 0.75 0
0.75 0.875 0
0.875 0.875 0
0.875 0.75 0
1 0.75 0
0.875 0.875 0
1 0.875 0
0.875 0.875 0
1 0.875 0
0.875 1 0
1 1 0
0.75 0.875 0
0.875 0.875 0
0.75 1 0
0.875 1 0
0.5 0.75 0
0.625 0.75 0
0.5 0.875 0
0.625 0.875 0
0.625 0.75 0
0.75 0.75 0
0.625 0.875 0
0.75 0.875 0
0.625 0.875 0
0.75 0.875 0
0.625 1 0
0.75 1 0
0.5 0.875 0
0.625 0.875 0
0.5 1 0
0.625 1 0
0 0.5 0
0.125 0.5 0
0 0.625 0
0.125 0.625 0
0.125 0.5 0
0.25 0.5 0
0.125 0.625 0
0.25 0.625 0
0.125 0.625 0
0.25 0.625 0
0.125 0.75 0
0.25 0.75 0
0 0.625 0
0.125 0.625 0
0 0.75 0
0.125 0.75 0
0.25 0.5 0
0.375 0.5 0
0.25 0.625 0
0.375 0.625 0
0.375 0.5 0
0.5 0.5 0
0.375 0.625 0
0.5 0.625 0
0.375 0.625 0
0.5 0.625 0
0.375 0.75 0
0.5 0.75 0
0.25 0.625 0
0.375 0.625 0
0.25 0.75 0
0.375 0.75 0
0.25 0.75 0
0.375 0.75 0
0.25 0.875 0
0.375 0.875 0
0.375 0.75 0
0.5 0.75 0
0.375 0.875 0
0.5 0.875 0
0.375 0.875 0
0.5 0.875 0
0.375 1 0
0.5 1 0
0.25 0.875 0
0.375 0.875 0
0.25 1 0
0.375 1 0
0 0.75 0
0.125 0.75 0
0 0.875 0
0.125 0.875 0
0.125 0.75 0
0.25 0.75 0
0.125 0.875 0
0.25 0.875 0
0.125 0.875 0
0.25 0.875 0
0.125 1 0
0.25 1 0
0 0.875 0
0.125 0.875 0
0 1 0
0.125 1 0
1 0 0
1.125 0 0
1 0.125 0
1.125 0.125 0
1.125 0 0
1.25 0 0
1.125 0.125 0
1.25 0.125 0
1.125 0.125 0
1.25 0.125 0
1.125 0.25 0
1.25 0.25 0
1 0.125 0
1.125 0.125 0
1 0.25 0
1.125 0.25 0
1.25 0 0
1.375 0 0
1.25 0.125 0
1.375 0.125 0
1.375 0 0
1.5 0 0
1.375 0.125 0
1.5 0.125 0
1.375 0.125 0
1.5 0.125 0
1.375 0.25 0
1.5 0.25 0
1.25 0.125 0
1.375 0.125 0
1.25 0.25 0
1.375 0.25 0
1.25 0.25 0
1.375 0.25 0
1.25 0.375 0
1.375 0.375 0
1.375 0.25 0
1.5 0.25 0
1.375 0.375 0
1.5 0.375 0
1.375 0.375 0
1.5 0.375 0
1.375 0.5 0
1.5 0.5 0
1.25 0.375 0
1.375 0.375 0
1.25 0.5 0
1.375 0.5 0
1 0.25 0
1.125 0.25 0
1 0.375 0
1.125 0.375 0
1.125 0.25 0
1.25 0.25 0
1.125 0.375 0
1.25 0.375 0
1.125 0.375 0
1.25 0.375 0
1.125 0.5 0
1.25 0.5 0
1 0.375 0
1.125 0.375 0
1 0.5 0
1.125 0.5 0
1.5 0 0
1.625 0 0
1.5 0.125 0
1.625 0.125 0
1.625 0 0
1.75 0 0
1.625 0.125 0
1.75 0.125 0
1.625 0.125 0
1.75 0.125 0
1.625 0.25 0
1.75 0.25 0
1.5 0.125 0
1.625 0.125 0
1.5 0.25 0
1.625 0.25 0
1.75 0 0
1.875 0 0
1.75 0.125 0
1.875 0.125 0
1.875 0 0
2 0 0
1.875 0.125 0
2 0.125 0
1.875 0.125 0
2 0.125 0
1.875 0.25 0
2 0.25 0
1.75 0.125 0
1.875 0.125 0
1.75 0.25 0
1.875 0.25 0
1.75 0.25 0
1.875 0.25 0
1.75 0.375 0
1.875 0.375 0
1.875 0.25 0
2 0.25 0
1.875 0.375 0
2 0.375 0
1.875 0.375 0
2 0.375 0
1.875 0.5 0
2 0.5 0
1.75 0.375 0
1.875 0.375 0
1.75 0.5 0
1.875 0.5 0
1.5 0.25 0
1.625 0.25 0
1.5 0.375 0
1.625 0.375 0
1.625 0.25 0
1.75 0.25 0
1.625 0.375 0
1.75 0.375 0
1.625 0.375 0
1.75 0.375 0
1.625 0.5 0
1.75 0.5 0
1.5 0.375 0
1.625 0.375 0
1.5 0.5 0
1.625 0.5 0
1.5 0.5 0
1.625 0.5 0
1.5 0.625 0
1.625 0.625 0
1.625 0.5 0
1.75 0.5 0
1.625 0.625 0
1.75 0.625 0
1.625 0.625 0
1.75 0.625 0
1.625 0.75 0
1.75 0.75 0
1.5 0.625 0
1.625 0.625 0
1.5 0.75 0
1.625 0.75 0
1.75 0.5 0
1.875 0.5 0
1.75 0.625 0
1.875 0.625 0
1.875 0.5 0
2 0.5 0
1.875 0.625 0
2 0.625 0
1.875 0.625 0
2 0.625 0
1.875 0.75 0
2 0.75 0
1.75 0.625 0
1.875 0.625 0
1.75 0.75 0
1.875 0.75 0
1.75 0.75 0
1.875 0.75 0
1.75 0.875 0
1.875 0.875 0
1.875 0.75 0
2 0.75 0
1.875 0.875 0
2 0.875 0
1.875 0.875 0
2 0.875 0
1.875 1 0
2 1 0
1.75 0.875 0
1.875 0.875 0
1.75 1 0
1.875 1 0
1.5 0.75 0
1.625 0.75 0
1.5 0.875 0
1.625 0.875 0
1.625 0.75 0
1.75 0.75 0
1.625 0.875 0
1.75 0.875 0
1.625 0.875 0
1.75 0.875 0
1.625 1 0
1.75 1 0
1.5 0.875 0
1.625 0.875 0
1.5 1 0
1.625 1 0
1 0.5 0
1.125 0.5 0
1 0.625 0
1.125 0.625 0
1.125 0.5 0
1.25 0.5 0
1.125 0.625 0
1.25 0.625 0
1.125 0.625 0
1.25 0.625 0
1.125 0.75 0
1.25 0.75 0
1 0.625 0
1.125 0.625 0
1 0.75 0
1.125 0.75 0
1.25 0.5 0
1.375 0.5 0
1.25 0.625 0
1.375 0.625 0
1.375 0.5 0
1.5 0.5 0
1.375 0.625 0
1.5 0.625 0
1.375 0.625 0
1.5 0.625 0
1.375 0.75 0
1.5 0.75 0
1.25 0.625 0
1.375 0.625 0
1.25 0.75 0
1.375 0.75 0
1.25 0.75 0
1.375 0.75 0
1.25 0.875 0
1.375 0.875 0
1.375 0.75 0
1.5 0.75 0
1.375 0.875 0
1.5 0.875 0
1.375 0.875 0
1.5 0.875 0
1.375 1 0
1.5 1 0
1.25 0.875 0
1.375 0.875 0
1.25 1 0
1.375 1 0
1 0.75 0
1.125 0.75 0
1 0.875 0
1.125 0.875 0
1.125 0.75 0
1.25 0.75 0
1.125 0.875 0
1.25 0.875 0
1.125 0.875 0
1.25 0.875 0
1.125 1 0
1.25 1 0
1 0.875 0
1.125 0.875 0
1 1 0
1.125 1 0
2 0 0
2.125 0 0
2 0.125 0
2.125 0.125 0
2.125 0 0
2.25 0 0
2.125 0.125 0
2.25 0.125 0
2.125 0.125 0
2.25 0.125 0
2.125 0.25 0
2.25 0.25 0
2 0.125 0
2.125 0.125 0
2 0.25 0
2.125 0.25 0
2.25 0 0
2.375 0 0
2.25 0.125 0
2.375 0.125 0
2.375 0 0
2.5 0 0
2.375 0.125 0
2.5 0.125 0
2.375 0.125 0
2.5 0.125 0
2.375 0.25 0
2.5 0.25 0
2.25 0.125 0
2.375 0.125 0
2.25 0.25 0
2.375 0.25 0
2.25 0.25 0
2.375 0.25 0
2.25 0.375 0
2.375 0.375 0
2.375 0.25 0
2.5 0.25 0
2.375 0.375 0
2.5 0.375 0
2.375 0.375 0
2.5 0.375 0
2.375 0.5 0
2.5 0.5 0
2.25 0.375 0
2.375 0.375 0
2.25 0.5 0
2.375 0.5 0
2 0.25 0
2.125 0.25 0
2 0.375 0
2.125 0.375 0
2.125 0.25 0
2.25 0.25 0
2.125 0.375 0
2.25 0.375 0
2.125 0.375 0
2.25 0.375 0
2.125 0.5 0
2.25 0.5 0
2 0.375 0
2.125 0.375 0
2 0.5 0
2.125 0.5 0
2.5 0 0
2.625 0 0
2.5 0.125 0
2.625 0.125 0
2.625 0 0
2.75 0 0
2.625 0.125 0
2.75 0.125 0
2.625 0.125 0
2.75 0.125 0
2.625 0.25 0
2.75 0.25 0
2.5 0.125 0
2.625 0.125 0
2.5 0.25 0
2.625 0.25 0
2.75 0 0
2.875 0 0
2.75 0.125 0
2.875 0.125 0
2.875 0 0
3 0 0
2.875 0.125 0
3 0.125 0
2.875 0.125 0
3 0.125 0
2.875 0.25 0
3 0.25 0
2.75 0.125 0
2.875 0.125 0
2.75 0.25 0
2.875 0.25 0
2.75 0.25 0
2.875 0.25 0
2.75 0.375 0
2.875 0.375 0
2.875 0.25 0
3 0.25 0
2.875 0.375 0
3 0.375 0
2.875 0.375 0
3 0.375 0
2.875 0.5 0
3 0.5 0
2.75 0.375 0
2.875 0.375 0
2.75 0.5 0
2.875 0.5 0
2.5 0.25 0
2.625 0.25 0
2.5 0.375 0
2.625 0.375 0
2.625 0.25 0
2.75 0.25 0
2.625 0.375 0
2.75 0.375 0
2.625 0.375 0
2.75 0.375 0
2.625 0.5 0
2.75 0.5 0
2.5 0.375 0
2.625 0.375 0
2.5 0.5 0
2.625 0.5 0
2.5 0.5 0
2.625 0.5 0
2.5 0.625 0
2.625 0.625 0
2.625 0.5 0
2.75 0.5 0
2.625 0.625 0
2.75 0.625 0
2.625 0.625 0
2.75 0.625 0
2.625 0.75 0
2.75 0.75 0
2.5 0.625 0
2.625 0.625 0
2.5 0.75 0
2.625 0.75 0
2.75 0.5 0
2.875 0.5 0
2.75 0.625 0
2.875 0.625 0
2.875 0.5 0
3 0.5 0
2.875 0.625 0
3 0.625 0
2.875 0.625 0
3 0.625 0
2.875 0.75 0
3 0.75 0
2.75 0.625 0
2.875 0.625 0
2.75 0.75 0
2.875 0.75 0
2.75 0.75 0
2.875 0.75 0
2.75 0.875 0
2.875 0.875 0
2.875 0.75 0
3 0.75 0
2.875 0.875 0
3 0.875 0
2.875 0.875 0
3 0.875 0
2.875 1 0
3 1 0
2.75 0.875 0
2.875 0.875 0
2.75 1 0
2.875 1 0
2.5 0.75 0
2.625 0.75 0
2.5 0.875 0
2.625 0.875 0
2.625 0.75 0
2.75 0.75 0
2.625 0.875 0
2.75 0.875 0
2.625 0.875 0
2.75 0.875 0
2.625 1 0
2.75 1 0
2.5 0.875 0
2.625 0.875 0
2.5 1 0
2.625 1 0
2 0.5 0
2.125 0.5 0
2 0.625 0
2.125 0.625 0
2.125 0.5 0
2.25 0.5 0
2.125 0.625 0
2.25 0.625 0
2.125 0.625 0
2.25 0.625 0
2.125 0.75 0
2.25 0.75 0
2 0.625 0
2.125 0.625 0
2 0.75 0
2.125 0.75 0
2.25 0.5 0
2.375 0.5 0
2.25 0.625 0
2.375 0.625 0
2.375 0.5 0
2.5 0.5 0
2.375 0.625 0
2.5 0.625 0
2.375 0.625 0
2.5 0.625 0
2.375 0.75 0
2.5 0.75 0
2.25 0.625 0
2.375 0.625 0
2.25 0.75 0
2.375 0.75 0
2.25 0.75 0
2.375 0.75 0
2.25 0.875 0
2.375 0.875 0
2.375 0.75 0
2.5 0.75 0
2.375 0.875 0
2.5 0.875 0
2.375 0.875 0
2.5 0.875 0
2.375 1 0
2.5 1 0
2.25 0.875 0
2.375 0.875 0
2.25 1 0
2.375 1 0
2 0.75 0
2.125 0.75 0
2 0.875 0
2.125 0.875 0
2.125 0.75 0
2.25 0.75 0
2.125 0.875 0
2.25 0.875 0
2.125 0.875 0
2.25 0.875 0
2.125 1 0
2.25 1 0
2 0.875 0
2.125 0.875 0
2 1 0
2.125 1 0
3 0 0
3.125 0 0
3 0.125 0
3.125 0.125 0
3.125 0 0
3.25 0 0
3.125 0.125 0
3.25 0.125 0
3.125 0.125 0
3.25 0.125 0
3.125 0.25 0
3.25 0.25 0
3 0.125 0
3.125 0.125 0
3 0.25 0
3.125 0.25 0
3.25 0 0
3.375 0 0
3.25 0.125 0
3.375 0.125 0
3.375 0 0
3.5 0 0
3.375 0.125 0
3.5 0.125 0
3.375 0.125 0
3.5 0.125 0
3.375 0.25 0
3.5 0.25 0
3.25 0.125 0
3.375 0.125 0
3.25 0.25 0
3.375 0.25 0
3.25 0.25 0
3.375 0.25 0
3.25 0.375 0
3.375 0.375 0
3.375 0.25 0
3.5 0.25 0
3.375 0.375 0
3.5 0.375 0
3.375 0.375 0
3.5 0.375 0
3.375 0.5 0
3.5 0.5 0
3.25 0.375 0
3.375 0.375 0
3.25 0.5 0
[...]
<CellData Scalars="attribute">
<DataArray type="Int32" Name="attribute" format="ascii">
1
1
1
1
1
1
1
1
1
1
1
1
1
1
1
1
1
1
1
1
1
1
1
1
1
1
1
1
1
1
1
1
1
1
1
1
1
1
1
1
1
1
1
1
1
1
1
1
1
1
1
1
1
1
1
1
1
1
1
1
1
1
1
1
1
1
1
1
1
1
1
1
1
1
1
1
1
1
1
1
1
1
1
1
1
1
1
1
1
1
1
1
1
1
1
1
1
1
1
1
1
1
1
1
1
1
1
1
1
1
1
1
1
1
1
1
1
1
1
1
1
1
1
1
1
1
1
1
1
1
1
1
1
1
1
1
1
1
1
1
1
1
1
1
1
1
1
1
1
1
1
1
1
1
1
1
1
1
1
1
1
1
1
1
1
1
1
1
1
1
1
1
1
1
1
1
1
1
1
1
1
1
1
1
1
1
1
1
1
1
1
1
1
1
1
1
1
1
1
1
1
1
1
1
1
1
1
1
1
1
1
1
1
1
1
1
1
1
1
1
1
1
1
1
1
1
1
1
1
1
1
1
1
1
1
1
1
1
1
1
1
1
1
1
1
1
1
1
1
1
1
1
1
1
1
1
2
2
2
2
2
2
2
2
2
2
2
2
2
2
2
2
2
2
2
2
2
2
2
2
2
2
2
2
2
2
2
2
2
2
2
2
2
2
2
2
2
2
2
2
2
2
2
2
2
2
2
2
2
2
2
2
2
2
2
2
2
2
2
2
2
2
2
2
2
2
2
2
2
2
2
2
2
2
2
2
2
2
2
2
2
2
2
2
2
2
2
2
2
2
2
2
2
2
2
2
2
2
2
2
2
2
2
2
2
2
2
2
2
2
2
2
2
2
2
2
2
2
2
2
2
2
2
2
2
2
2
2
2
2
2
2
2
2
2
2
2
2
2
2
2
2
2
2
2
2
2
2
2
2
2
2
2
2
2
2
2
2
2
2
2
2
2
2
2
2
2
2
2
2
2
2
2
2
2
2
2
2
2
2
2
2
2
2
2
2
2
2
2
2
2
2
2
2
2
2
2
2
2
2
2
2
2
2
2
2
2
2
2
2
2
2
2
2
2
2
2
2
2
2
2
2
2
2
2
2
2
2
2
2
2
2
2
2
2
2
2
2
2
2
2
2
2
2
2
2
2
2
2
2
2
2
</DataArray>
</CellData>
<PointData >
<DataArray type="Float64" Name="Pressure" NumberOfComponents="1" format="ascii" >
-4.33913e-05
-1.0805e-08
-7.10043e-05
-1.78859e-08
-1.0805e-08
1.1663e-13
-1.78859e-08
2.01964e-13
-1.78859e-08
2.01964e-13
-1.20075e-08
1.37147e-13
-7.10043e-05
-1.78859e-08
-4.73363e-05
-1.20075e-08
1.1663e-13
-8.07957e-19
2.01964e-13
-1.44241e-18
-8.07957e-19
5.6439e-24
-1.44241e-18
1.04457e-23
-1.44241e-18
1.04457e-23
-1.00427e-18
7.46967e-24
2.01964e-13
-1.44241e-18
1.37147e-13
-1.00427e-18
1.37147e-13
-1.00427e-18
7.02809e-14
-5.13163e-19
-1.00427e-18
7.46967e-24
-5.13163e-19
3.82087e-24
-5.13163e-19
3.82087e-24
-1.69744e-20
1.21148e-25
7.02809e-14
-5.13163e-19
2.47516e-15
-1.69744e-20
-4.73363e-05
-1.20075e-08
-2.36683e-05
-6.09733e-09
-1.20075e-08
1.37147e-13
-6.09733e-09
7.02809e-14
-6.09733e-09
7.02809e-14
-1.35025e-10
2.47516e-15
-2.36683e-05
-6.09733e-09
-1.66176e-10
-1.35025e-10
5.6439e-24
-2.01858e-29
1.04457e-23
-3.87165e-29
-2.01858e-29
1.22583e-34
-3.87165e-29
2.36439e-34
-3.87165e-29
2.36439e-34
-2.86769e-29
1.77645e-34
1.04457e-23
-3.87165e-29
7.46967e-24
-2.86769e-29
1.22583e-34
-1.78295e-40
2.36439e-34
-3.78964e-40
-1.78295e-40
1.57677e-45
-3.78964e-40
3.08703e-45
-3.78964e-40
3.08703e-45
-3.06266e-40
2.39041e-45
2.36439e-34
-3.78964e-40
1.77645e-34
-3.06266e-40
1.77645e-34
-3.06266e-40
9.23519e-35
-1.61472e-40
-3.06266e-40
2.39041e-45
-1.61472e-40
1.26941e-45
-1.61472e-40
1.26941e-45
-4.65163e-42
3.23176e-47
9.23519e-35
-1.61472e-40
2.64812e-36
-4.65163e-42
7.46967e-24
-2.86769e-29
3.82087e-24
-1.47587e-29
-2.86769e-29
1.77645e-34
-1.47587e-29
9.23519e-35
-1.47587e-29
9.23519e-35
-4.50496e-31
2.64812e-36
3.82087e-24
-1.47587e-29
1.21148e-25
-4.50496e-31
1.21148e-25
-4.50496e-31
-3.63015e-24
1.40566e-29
-4.50496e-31
2.64812e-36
1.40566e-29
-8.83117e-35
1.40566e-29
-8.83117e-35
2.85742e-29
-1.77175e-34
-3.63015e-24
1.40566e-29
-7.43457e-24
2.85742e-29
2.64812e-36
-4.65163e-42
-8.83117e-35
1.54425e-40
-4.65163e-42
3.23176e-47
1.54425e-40
-1.22149e-45
1.54425e-40
-1.22149e-45
3.0544e-40
-2.38654e-45
-8.83117e-35
1.54425e-40
-1.77175e-34
3.0544e-40
-1.77175e-34
3.0544e-40
-2.40211e-34
3.84734e-40
3.0544e-40
-2.38654e-45
3.84734e-40
-3.13022e-45
3.84734e-40
-3.13022e-45
1.82184e-40
-1.60728e-45
-2.40211e-34
3.84734e-40
-1.25341e-34
1.82184e-40
-7.43457e-24
2.85742e-29
-1.06318e-23
3.93752e-29
2.85742e-29
-1.77175e-34
3.93752e-29
-2.40211e-34
3.93752e-29
-2.40211e-34
2.06755e-29
-1.25341e-34
-1.06318e-23
3.93752e-29
-5.79222e-24
2.06755e-29
-1.66176e-10
-1.35025e-10
2.3668e-05
5.87942e-09
-1.35025e-10
2.47516e-15
5.87942e-09
-6.6295e-14
5.87942e-09
-6.6295e-14
1.1946e-08
-1.36052e-13
2.3668e-05
5.87942e-09
4.73362e-05
1.1946e-08
2.47516e-15
-1.69744e-20
-6.6295e-14
4.86102e-19
-1.69744e-20
1.21148e-25
4.86102e-19
-3.63015e-24
4.86102e-19
-3.63015e-24
9.97977e-19
-7.43457e-24
-6.6295e-14
4.86102e-19
-1.36052e-13
9.97977e-19
-1.36052e-13
9.97977e-19
-2.05697e-13
1.46923e-18
9.97977e-19
-7.43457e-24
1.46923e-18
-1.06318e-23
1.46923e-18
-1.06318e-23
8.30792e-19
-5.79222e-24
-2.05697e-13
1.46923e-18
-1.20453e-13
8.30792e-19
4.73362e-05
1.1946e-08
7.10046e-05
1.80871e-08
1.1946e-08
-1.36052e-13
1.80871e-08
-2.05697e-13
1.80871e-08
-2.05697e-13
1.10182e-08
-1.20453e-13
7.10046e-05
1.80871e-08
4.33916e-05
1.10182e-08
1.57677e-45
3.57296e-52
3.08703e-45
1.16981e-52
3.57296e-52
1.41024e-56
1.16981e-52
2.73666e-56
1.16981e-52
2.73666e-56
-2.48872e-52
2.13583e-56
3.08703e-45
1.16981e-52
2.39041e-45
-2.48872e-52
1.41024e-56
1.87559e-62
2.73666e-56
3.17282e-62
1.87559e-62
9.0903e-68
3.17282e-62
1.73235e-67
3.17282e-62
1.73235e-67
2.18898e-62
1.34472e-67
2.73666e-56
3.17282e-62
2.13583e-56
2.18898e-62
2.13583e-56
2.18898e-62
1.15109e-56
1.14084e-62
2.18898e-62
1.34472e-67
1.14084e-62
7.2913e-68
1.14084e-62
7.2913e-68
1.91656e-64
1.38707e-69
1.15109e-56
1.14084e-62
2.55029e-58
1.91656e-64
2.39041e-45
-2.48872e-52
1.26941e-45
-1.67203e-52
-2.48872e-52
2.13583e-56
-1.67203e-52
1.15109e-56
-1.67203e-52
1.15109e-56
-9.225e-54
2.55029e-58
1.26941e-45
-1.67203e-52
3.23176e-47
-9.225e-54
9.0903e-68
1.55233e-73
1.73235e-67
2.78232e-73
1.55233e-73
3.96722e-79
2.78232e-73
7.45161e-79
2.78232e-73
7.45161e-79
2.04393e-73
5.74443e-79
1.73235e-67
2.78232e-73
1.34472e-67
2.04393e-73
3.96722e-79
6.28601e-85
7.45161e-79
1.14771e-84
6.28601e-85
1.0496e-90
1.14771e-84
1.95521e-90
1.14771e-84
1.95521e-90
8.62112e-85
1.50149e-90
7.45161e-79
1.14771e-84
5.74443e-79
8.62112e-85
5.74443e-79
8.62112e-85
3.11903e-79
4.63492e-85
8.62112e-85
1.50149e-90
4.63492e-85
8.15427e-91
4.63492e-85
8.15427e-91
6.6657e-87
1.14237e-92
3.11903e-79
4.63492e-85
5.08165e-81
6.6657e-87
1.34472e-67
2.04393e-73
7.2913e-68
1.08828e-73
2.04393e-73
5.74443e-79
1.08828e-73
3.11903e-79
1.08828e-73
3.11903e-79
1.74842e-75
5.08165e-81
7.2913e-68
1.08828e-73
1.38707e-69
1.74842e-75
1.38707e-69
1.74842e-75
-7.09165e-68
-1.06354e-73
1.74842e-75
5.08165e-81
-1.06354e-73
-3.0464e-79
-1.06354e-73
-3.0464e-79
-2.0446e-73
-5.74243e-79
-7.09165e-68
-1.06354e-73
-1.34387e-67
-2.0446e-73
5.08165e-81
6.6657e-87
-3.0464e-79
-4.54065e-85
6.6657e-87
1.14237e-92
-4.54065e-85
-7.99172e-91
-4.54065e-85
-7.99172e-91
-8.62248e-85
-1.50122e-90
-3.0464e-79
-4.54065e-85
-5.74243e-79
-8.62248e-85
-5.74243e-79
-8.62248e-85
-7.52017e-79
-1.15764e-84
-8.62248e-85
-1.50122e-90
-1.15764e-84
-1.97091e-90
-1.15764e-84
-1.97091e-90
-6.35684e-85
-1.06074e-90
-7.52017e-79
-1.15764e-84
-4.0158e-79
-6.35684e-85
-1.34387e-67
-2.0446e-73
-1.75065e-67
-2.80992e-73
-2.0446e-73
-5.74243e-79
-2.80992e-73
-7.52017e-79
-2.80992e-73
-7.52017e-79
-1.57224e-73
-4.0158e-79
-1.75065e-67
-2.80992e-73
-9.21943e-68
-1.57224e-73
3.23176e-47
-9.225e-54
-1.22149e-45
1.52781e-52
-9.225e-54
2.55029e-58
1.52781e-52
-1.11397e-56
1.52781e-52
-1.11397e-56
2.44329e-52
-2.13361e-56
-1.22149e-45
1.52781e-52
-2.38654e-45
2.44329e-52
2.55029e-58
1.91656e-64
-1.11397e-56
-1.11386e-62
1.91656e-64
1.38707e-69
-1.11386e-62
-7.09165e-68
-1.11386e-62
-7.09165e-68
-2.19102e-62
-1.34387e-67
-1.11397e-56
-1.11386e-62
-2.13361e-56
-2.19102e-62
-2.13361e-56
-2.19102e-62
-2.76994e-56
-3.20863e-62
-2.19102e-62
-1.34387e-67
-3.20863e-62
-1.75065e-67
-3.20863e-62
-1.75065e-67
-1.90248e-62
-9.21943e-68
-2.76994e-56
-3.20863e-62
-1.43362e-56
-1.90248e-62
-2.38654e-45
2.44329e-52
-3.13022e-45
-1.17507e-52
2.44329e-52
-2.13361e-56
-1.17507e-52
-2.76994e-56
-1.17507e-52
-2.76994e-56
-3.60766e-52
-1.43362e-56
-3.13022e-45
-1.17507e-52
-1.60728e-45
-3.60766e-52
1.0496e-90
1.28444e-96
1.95521e-90
2.3625e-96
1.28444e-96
1.32994e-102
2.3625e-96
2.46729e-102
2.3625e-96
2.46729e-102
1.7935e-96
1.89245e-102
1.95521e-90
2.3625e-96
1.50149e-90
1.7935e-96
1.32994e-102
8.27442e-109
2.46729e-102
1.52653e-108
8.27442e-109
-1.4209e-115
1.52653e-108
-2.6308e-115
1.52653e-108
-2.6308e-115
1.16533e-108
-2.01812e-115
2.46729e-102
1.52653e-108
1.89245e-102
1.16533e-108
1.89245e-102
1.16533e-108
1.02797e-102
6.31632e-109
1.16533e-108
-2.01812e-115
6.31632e-109
-1.09657e-115
6.31632e-109
-1.09657e-115
7.02417e-111
-1.15213e-117
1.02797e-102
6.31632e-109
1.2447e-104
7.02417e-111
1.50149e-90
1.7935e-96
8.15427e-91
9.69297e-97
1.7935e-96
1.89245e-102
9.69297e-97
1.02797e-102
9.69297e-97
1.02797e-102
1.22925e-98
1.2447e-104
8.15427e-91
9.69297e-97
1.14237e-92
1.22925e-98
-1.4209e-115
-1.27472e-120
-2.6308e-115
-2.3544e-120
-1.27472e-120
-1.97822e-126
-2.3544e-120
-3.65897e-126
-2.3544e-120
-3.65897e-126
-1.80293e-120
-2.80859e-126
-2.6308e-115
-2.3544e-120
-2.01812e-115
-1.80293e-120
-1.97822e-126
-1.70871e-132
-3.65897e-126
-3.15696e-132
-1.70871e-132
-4.92056e-139
-3.15696e-132
-9.0957e-139
-3.15696e-132
-9.0957e-139
-2.42201e-132
-6.98667e-139
-3.65897e-126
-3.15696e-132
-2.80859e-126
-2.42201e-132
-2.80859e-126
-2.42201e-132
-1.52654e-126
-1.31596e-132
-2.42201e-132
-6.98667e-139
-1.31596e-132
-3.79824e-139
-1.31596e-132
-3.79824e-139
-1.11899e-134
-3.02705e-141
-1.52654e-126
-1.31596e-132
-1.39567e-128
-1.11899e-134
-2.01812e-115
-1.80293e-120
-1.09657e-115
-9.78771e-121
-1.80293e-120
-2.80859e-126
-9.78771e-121
-1.52654e-126
-9.78771e-121
-1.52654e-126
-9.52217e-123
-1.39567e-128
-1.09657e-115
-9.78771e-121
-1.15213e-117
-9.52217e-123
-1.15213e-117
-9.52217e-123
1.08025e-115
9.65307e-121
-9.52217e-123
-1.39567e-128
9.65307e-121
1.50678e-126
9.65307e-121
1.50678e-126
1.80295e-120
2.80852e-126
1.08025e-115
9.65307e-121
2.01803e-115
1.80295e-120
-1.39567e-128
-1.11899e-134
1.50678e-126
1.30014e-132
-1.11899e-134
-3.02705e-141
1.30014e-132
3.75539e-139
1.30014e-132
3.75539e-139
2.422e-132
6.98652e-139
1.50678e-126
1.30014e-132
2.80852e-126
2.422e-132
2.80852e-126
2.422e-132
3.67852e-126
3.17273e-132
2.422e-132
6.98652e-139
3.17273e-132
9.13809e-139
3.17273e-132
9.13809e-139
1.71987e-132
4.95059e-139
3.67852e-126
3.17273e-132
1.99207e-126
1.71987e-132
2.01803e-115
1.80295e-120
2.64691e-115
2.36789e-120
1.80295e-120
2.80852e-126
2.36789e-120
3.67852e-126
2.36789e-120
3.67852e-126
1.28428e-120
1.99207e-126
2.64691e-115
2.36789e-120
1.43231e-115
1.28428e-120
1.14237e-92
1.22925e-98
-7.99172e-91
-9.51919e-97
1.22925e-98
1.2447e-104
-9.51919e-97
-1.01031e-102
-9.51919e-97
-1.01031e-102
-1.79364e-96
-1.89228e-102
-7.99172e-91
-9.51919e-97
-1.50122e-90
-1.79364e-96
1.2447e-104
7.02417e-111
-1.01031e-102
-6.21701e-109
7.02417e-111
-1.15213e-117
-6.21701e-109
1.08025e-115
-6.21701e-109
1.08025e-115
-1.16538e-108
2.01803e-115
-1.01031e-102
-6.21701e-109
-1.89228e-102
-1.16538e-108
-1.89228e-102
-1.16538e-108
-2.4846e-102
-1.53657e-108
-1.16538e-108
2.01803e-115
-1.53657e-108
2.64691e-115
-1.53657e-108
2.64691e-115
-8.34554e-109
1.43231e-115
-2.4846e-102
-1.53657e-108
-1.34222e-102
-8.34554e-109
-1.50122e-90
-1.79364e-96
-1.97091e-90
-2.38033e-96
-1.79364e-96
-1.89228e-102
-2.38033e-96
-2.4846e-102
-2.38033e-96
-2.4846e-102
-1.29709e-96
-1.34222e-102
-1.97091e-90
-2.38033e-96
-1.06074e-90
-1.29709e-96
-4.92056e-139
9.9691e-145
-9.0957e-139
1.84178e-144
9.9691e-145
1.79262e-150
1.84178e-144
3.31224e-150
1.84178e-144
3.31224e-150
1.41467e-144
2.54583e-150
-9.0957e-139
1.84178e-144
-6.98667e-139
1.41467e-144
1.79262e-150
1.37628e-156
3.31224e-150
2.54217e-156
1.37628e-156
1.29185e-163
2.54217e-156
2.38612e-163
2.54217e-156
2.38612e-163
1.95418e-156
1.83494e-163
3.31224e-150
2.54217e-156
2.54583e-150
1.95418e-156
2.54583e-150
1.95418e-156
1.38418e-150
1.06243e-156
1.95418e-156
1.83494e-163
1.06243e-156
9.97702e-164
1.06243e-156
9.97702e-164
6.89876e-159
6.06113e-166
1.38418e-150
1.06243e-156
9.62699e-153
6.89876e-159
-6.98667e-139
1.41467e-144
-3.79824e-139
7.68972e-145
1.41467e-144
2.54583e-150
7.68972e-145
1.38418e-150
7.68972e-145
1.38418e-150
5.7136e-147
9.62699e-153
-3.79824e-139
7.68972e-145
-3.02705e-141
5.7136e-147
1.29185e-163
-9.67318e-169
2.38612e-163
-1.78632e-168
-9.67318e-169
-1.14809e-174
-1.78632e-168
-2.11994e-174
-1.78632e-168
-2.11994e-174
-1.37391e-168
-1.63092e-174
2.38612e-163
-1.78632e-168
1.83494e-163
-1.37391e-168
-1.14809e-174
-4.70205e-181
-2.11994e-174
-8.68086e-181
-4.70205e-181
3.47375e-187
-8.68086e-181
6.41247e-187
-8.68086e-181
6.41247e-187
-6.67936e-181
4.93486e-187
-2.11994e-174
-8.68086e-181
-1.63092e-174
-6.67936e-181
-1.63092e-174
-6.67936e-181
-8.86749e-175
-3.63148e-181
-6.67936e-181
4.93486e-187
-3.63148e-181
2.68296e-187
-3.63148e-181
2.68296e-187
-1.80252e-183
1.24569e-189
-8.86749e-175
-3.63148e-181
-4.70812e-177
-1.80252e-183
1.83494e-163
-1.37391e-168
9.97702e-164
-7.46993e-169
-1.37391e-168
-1.63092e-174
-7.46993e-169
-8.86749e-175
-7.46993e-169
-8.86749e-175
-4.24004e-171
-4.70812e-177
9.97702e-164
-7.46993e-169
6.06113e-166
-4.24004e-171
6.06113e-166
-4.24004e-171
-9.89119e-164
7.40989e-169
-4.24004e-171
-4.70812e-177
7.40989e-169
8.80079e-175
7.40989e-169
8.80079e-175
1.37387e-168
1.63088e-174
-9.89119e-164
7.40989e-169
-1.8349e-163
1.37387e-168
-4.70812e-177
-1.80252e-183
8.80079e-175
3.60593e-181
-1.80252e-183
1.24569e-189
3.60593e-181
-2.6653e-187
3.60593e-181
-2.6653e-187
6.67916e-181
-4.9347e-187
8.80079e-175
3.60593e-181
1.63088e-174
6.67916e-181
1.63088e-174
6.67916e-181
2.1265e-174
8.70591e-181
6.67916e-181
-4.9347e-187
8.70591e-181
-6.42975e-187
8.70591e-181
-6.42975e-187
4.71979e-181
-3.48599e-187
2.1265e-174
8.70591e-181
1.15273e-174
4.71979e-181
-1.8349e-163
1.37387e-168
-2.39458e-163
1.79223e-168
1.37387e-168
1.63088e-174
1.79223e-168
2.1265e-174
1.79223e-168
2.1265e-174
9.71506e-169
1.15273e-174
-2.39458e-163
1.79223e-168
-1.29784e-163
9.71506e-169
-3.02705e-141
5.7136e-147
3.75539e-139
-7.60888e-145
5.7136e-147
9.62699e-153
-7.60888e-145
-1.37055e-150
-7.60888e-145
-1.37055e-150
-1.41466e-144
-2.54577e-150
3.75539e-139
-7.60888e-145
6.98652e-139
-1.41466e-144
9.62699e-153
6.89876e-159
-1.37055e-150
-1.05267e-156
6.89876e-159
6.06113e-166
-1.05267e-156
-9.89119e-164
-1.05267e-156
-9.89119e-164
-1.95414e-156
-1.8349e-163
-1.37055e-150
-1.05267e-156
-2.54577e-150
-1.95414e-156
-2.54577e-150
-1.95414e-156
-3.32571e-150
-2.55183e-156
-1.95414e-156
-1.8349e-163
-2.55183e-156
-2.39458e-163
-2.55183e-156
-2.39458e-163
-1.38312e-156
-1.29784e-163
-3.32571e-150
-2.55183e-156
-1.80215e-150
-1.38312e-156
6.98652e-139
-1.41466e-144
9.13809e-139
-1.8498e-144
-1.41466e-144
-2.54577e-150
-1.8498e-144
-3.32571e-150
-1.8498e-144
-3.32571e-150
-1.00259e-144
-1.80215e-150
9.13809e-139
-1.8498e-144
4.95059e-139
-1.00259e-144
3.47375e-187
6.4162e-193
6.41247e-187
1.18425e-192
6.4162e-193
3.4803e-199
1.18425e-192
6.42293e-199
1.18425e-192
6.42293e-199
9.11478e-193
4.94414e-199
6.41247e-187
1.18425e-192
4.93486e-187
9.11478e-193
3.4803e-199
-1.00106e-205
6.42293e-199
-1.84724e-205
-1.00106e-205
-2.86986e-211
-1.84724e-205
-5.29514e-211
-1.84724e-205
-5.29514e-211
-1.42208e-205
-4.07682e-211
6.42293e-199
-1.84724e-205
4.94414e-199
-1.42208e-205
4.94414e-199
-1.42208e-205
2.68777e-199
-7.73044e-206
-1.42208e-205
-4.07682e-211
-7.73044e-206
-2.21605e-211
-7.73044e-206
-2.21605e-211
-2.93775e-208
-7.88032e-214
2.68777e-199
-7.73044e-206
1.09186e-201
-2.93775e-208
4.93486e-187
9.11478e-193
2.68296e-187
4.95524e-193
9.11478e-193
4.94414e-199
4.95524e-193
2.68777e-199
4.95524e-193
2.68777e-199
2.15166e-195
1.09186e-201
2.68296e-187
4.95524e-193
1.24569e-189
2.15166e-195
-2.86986e-211
-1.65537e-217
-5.29514e-211
-3.05396e-217
-1.65537e-217
3.35197e-224
-3.05396e-217
6.1834e-224
-3.05396e-217
6.1834e-224
-2.35149e-217
4.76146e-224
-5.29514e-211
-3.05396e-217
-4.07682e-211
-2.35149e-217
3.35197e-224
1.09987e-229
6.1834e-224
2.02874e-229
1.09987e-229
5.74922e-236
2.02874e-229
1.06037e-235
2.02874e-229
1.06037e-235
1.56231e-229
8.16625e-236
6.1834e-224
2.02874e-229
4.76146e-224
1.56231e-229
4.76146e-224
1.56231e-229
2.58795e-224
8.49103e-230
1.56231e-229
8.16625e-236
8.49103e-230
4.43808e-236
8.49103e-230
4.43808e-236
2.47533e-232
1.21126e-238
2.58795e-224
8.49103e-230
8.05992e-227
2.47533e-232
-4.07682e-211
-2.35149e-217
-2.21605e-211
-1.27814e-217
-2.35149e-217
4.76146e-224
-1.27814e-217
2.58795e-224
-1.27814e-217
2.58795e-224
-4.25317e-220
8.05992e-227
-2.21605e-211
-1.27814e-217
-7.88032e-214
-4.25317e-220
-7.88032e-214
-4.25317e-220
2.20487e-211
1.2721e-217
-4.25317e-220
8.05992e-227
1.2721e-217
-2.57649e-224
1.2721e-217
-2.57649e-224
2.35139e-217
-4.76125e-224
2.20487e-211
1.2721e-217
4.07666e-211
2.35139e-217
8.05992e-227
2.47533e-232
-2.57649e-224
-8.45582e-230
2.47533e-232
1.21126e-238
-8.45582e-230
-4.42084e-236
-8.45582e-230
-4.42084e-236
-1.56224e-229
-8.16588e-236
-2.57649e-224
-8.45582e-230
-4.76125e-224
-1.56224e-229
-4.76125e-224
-1.56224e-229
-6.19443e-224
-2.03212e-229
-1.56224e-229
-8.16588e-236
-2.03212e-229
-1.06201e-235
-2.03212e-229
-1.06201e-235
-1.10226e-229
-5.76088e-236
-6.19443e-224
-2.03212e-229
-3.35978e-224
-1.10226e-229
4.07666e-211
2.35139e-217
5.30598e-211
3.0598e-217
2.35139e-217
-4.76125e-224
3.0598e-217
-6.19443e-224
3.0598e-217
-6.19443e-224
1.6595e-217
-3.35978e-224
5.30598e-211
3.0598e-217
2.87754e-211
1.6595e-217
1.24569e-189
2.15166e-195
-2.6653e-187
-4.92473e-193
2.15166e-195
1.09186e-201
-4.92473e-193
-2.67228e-199
-4.92473e-193
-2.67228e-199
-9.11447e-193
-4.94396e-199
-2.6653e-187
-4.92473e-193
-4.9347e-187
-9.11447e-193
1.09186e-201
-2.93775e-208
-2.67228e-199
7.68875e-206
-2.93775e-208
-7.88032e-214
7.68875e-206
2.20487e-211
7.68875e-206
2.20487e-211
1.42203e-205
4.07666e-211
-2.67228e-199
7.68875e-206
-4.94396e-199
1.42203e-205
-4.94396e-199
1.42203e-205
-6.43801e-199
1.85129e-205
1.42203e-205
4.07666e-211
1.85129e-205
5.30598e-211
1.85129e-205
5.30598e-211
1.00393e-205
2.87754e-211
-6.43801e-199
1.85129e-205
-3.49098e-199
1.00393e-205
-4.9347e-187
-9.11447e-193
-6.42975e-187
-1.18723e-192
-9.11447e-193
-4.94396e-199
-1.18723e-192
-6.43801e-199
-1.18723e-192
-6.43801e-199
-6.43729e-193
-3.49098e-199
-6.42975e-187
-1.18723e-192
-3.48599e-187
-6.43729e-193
5.74922e-236
-1.57335e-242
1.06037e-235
-2.90159e-242
-1.57335e-242
-3.62342e-248
-2.90159e-242
-6.6818e-248
-2.90159e-242
-6.6818e-248
-2.23474e-242
-5.14642e-248
1.06037e-235
-2.90159e-242
8.16625e-236
-2.23474e-242
-3.62342e-248
-1.4403e-254
-6.6818e-248
-2.65581e-254
-1.4403e-254
7.30834e-261
-2.65581e-254
1.3475e-260
-2.65581e-254
1.3475e-260
-2.04563e-254
1.03796e-260
-6.6818e-248
-2.65581e-254
-5.14642e-248
-2.04563e-254
-5.14642e-248
-2.04563e-254
-2.79664e-248
-1.11158e-254
-2.04563e-254
1.03796e-260
-1.11158e-254
5.63992e-261
-1.11158e-254
5.63992e-261
-2.49157e-257
1.18427e-263
-2.79664e-248
-1.11158e-254
-6.69272e-251
-2.49157e-257
8.16625e-236
-2.23474e-242
4.43808e-236
-1.21445e-242
-2.23474e-242
-5.14642e-248
-1.21445e-242
-2.79664e-248
-1.21445e-242
-2.79664e-248
-3.10341e-245
-6.69272e-251
4.43808e-236
-1.21445e-242
1.21126e-238
-3.10341e-245
7.30834e-261
9.8406e-267
1.3475e-260
1.81428e-266
9.8406e-267
2.20182e-273
1.81428e-266
4.05917e-273
1.81428e-266
4.05917e-273
1.39755e-266
3.12691e-273
1.3475e-260
1.81428e-266
1.03796e-260
1.39755e-266
2.20182e-273
-2.6378e-279
4.05917e-273
-4.86263e-279
-2.6378e-279
-2.04677e-285
-4.86263e-279
-3.77289e-285
-4.86263e-279
-3.77289e-285
-3.74596e-279
-2.90656e-285
4.05917e-273
-4.86263e-279
3.12691e-273
-3.74596e-279
3.12691e-273
-3.74596e-279
1.69893e-273
-2.0352e-279
-3.74596e-279
-2.90656e-285
-2.0352e-279
-1.57909e-285
-2.0352e-279
-1.57909e-285
-3.51751e-282
-2.55882e-288
1.69893e-273
-2.0352e-279
3.13259e-276
-3.51751e-282
1.03796e-260
1.39755e-266
5.63992e-261
7.59355e-267
1.39755e-266
3.12691e-273
7.59355e-267
1.69893e-273
7.59355e-267
1.69893e-273
1.49401e-269
3.13259e-276
5.63992e-261
7.59355e-267
1.18427e-263
1.49401e-269
1.18427e-263
1.49401e-269
-5.62302e-261
-7.57221e-267
1.49401e-269
3.13259e-276
-7.57221e-267
-1.69445e-273
-7.57221e-267
-1.69445e-273
-1.39748e-266
-3.12675e-273
-5.62302e-261
-7.57221e-267
-1.0379e-260
-1.39748e-266
3.13259e-276
-3.51751e-282
-1.69445e-273
2.03017e-279
-3.51751e-282
-2.55882e-288
2.03017e-279
1.57543e-285
2.03017e-279
1.57543e-285
3.74577e-279
2.90641e-285
-1.69445e-273
2.03017e-279
-3.12675e-273
3.74577e-279
-3.12675e-273
3.74577e-279
-4.06333e-273