<VTKFile type="UnstructuredGrid" version="0.1" byte_order="LittleEndian">
<UnstructuredGrid>
<Piece NumberOfPoints="2048" NumberOfCells="512">
<Points>
<DataArray type="Float64" NumberOfComponents="3" format="ascii">
0 0 0
0.125 0 0
0 0.125 0
0.125 0.125 0
0.125 0 0
0.25 0 0
0.125 0.125 0
0.25 0.125 0
0.125 0.125 0
0.25 0.125 0
0.125 0.25 0
0.25 0.25 0
0 0.125 0
0.125 0.125 0
0 0.25 0
0.125 0.25 0
0.25 0 0
0.375 0 0
0.25 0.125 0
0.375 0.125 0
0.375 0 0
0.5 0 0
0.375 0.125 0
0.5 0.125 0
0.375 0.125 0
0.5 0.125 0
0.375 0.25 0
0.5 0.25 0
0.25 0.125 0
0.375 0.125 0
0.25 0.25 0
0.375 0.25 0
0.25 0.25 0
0.375 0.25 0
0.25 0.375 0
0.375 0.375 0
0.375 0.25 0
0.5 0.25 0
0.375 0.375 0
0.5 0.375 0
0.375 0.375 0
0.5 0.375 0
0.375 0.5 0
0.5 0.5 0
0.25 0.375 0
0.375 0.375 0
0.25 0.5 0
0.375 0.5 0
0 0.25 0
0.125 0.25 0
0 0.375 0
0.125 0.375 0
0.125 0.25 0
0.25 0.25 0
0.125 0.375 0
0.25 0.375 0
0.125 0.375 0
0.25 0.375 0
0.125 0.5 0
0.25 0.5 0
0 0.375 0
0.125 0.375 0
0 0.5 0
0.125 0.5 0
0.5 0 0
0.625 0 0
0.5 0.125 0
0.625 0.125 0
0.625 0 0
0.75 0 0
0.625 0.125 0
0.75 0.125 0
0.625 0.125 0
0.75 0.125 0
0.625 0.25 0
0.75 0.25 0
0.5 0.125 0
0.625 0.125 0
0.5 0.25 0
0.625 0.25 0
0.75 0 0
0.875 0 0
0.75 0.125 0
0.875 0.125 0
0.875 0 0
1 0 0
0.875 0.125 0
1 0.125 0
0.875 0.125 0
1 0.125 0
0.875 0.25 0
1 0.25 0
0.75 0.125 0
0.875 0.125 0
0.75 0.25 0
0.875 0.25 0
0.75 0.25 0
0.875 0.25 0
0.75 0.375 0
0.875 0.375 0
0.875 0.25 0
1 0.25 0
0.875 0.375 0
1 0.375 0
0.875 0.375 0
1 0.375 0
0.875 0.5 0
1 0.5 0
0.75 0.375 0
0.875 0.375 0
0.75 0.5 0
0.875 0.5 0
0.5 0.25 0
0.625 0.25 0
0.5 0.375 0
0.625 0.375 0
0.625 0.25 0
0.75 0.25 0
0.625 0.375 0
0.75 0.375 0
0.625 0.375 0
0.75 0.375 0
0.625 0.5 0
0.75 0.5 0
0.5 0.375 0
0.625 0.375 0
0.5 0.5 0
0.625 0.5 0
0.5 0.5 0
0.625 0.5 0
0.5 0.625 0
0.625 0.625 0
0.625 0.5 0
0.75 0.5 0
0.625 0.625 0
0.75 0.625 0
0.625 0.625 0
0.75 0.625 0
0.625 0.75 0
0.75 0.75 0
0.5 0.625 0
0.625 0.625 0
0.5 0.75 0
0.625 0.75 0
0.75 0.5 0
0.875 0.5 0
0.75 0.625 0
0.875 0.625 0
0.875 0.5 0
1 0.5 0
0.875 0.625 0
1 0.625 0
0.875 0.625 0
1 0.625 0
0.875 0.75 0
1 0.75 0
0.75 0.625 0
0.875 0.625 0
0.75 0.75 0
0.875 0.75 0
0.75 0.75 0
0.875 0.75 0
0.75 0.875 0
0.875 0.875 0
0.875 0.75 0
1 0.75 0
0.875 0.875 0
1 0.875 0
0.875 0.875 0
1 0.875 0
0.875 1 0
1 1 0
0.75 0.875 0
0.875 0.875 0
0.75 1 0
0.875 1 0
0.5 0.75 0
0.625 0.75 0
0.5 0.875 0
0.625 0.875 0
0.625 0.75 0
0.75 0.75 0
0.625 0.875 0
0.75 0.875 0
0.625 0.875 0
0.75 0.875 0
0.625 1 0
0.75 1 0
0.5 0.875 0
0.625 0.875 0
0.5 1 0
0.625 1 0
0 0.5 0
0.125 0.5 0
0 0.625 0
0.125 0.625 0
0.125 0.5 0
0.25 0.5 0
0.125 0.625 0
0.25 0.625 0
0.125 0.625 0
0.25 0.625 0
0.125 0.75 0
0.25 0.75 0
0 0.625 0
0.125 0.625 0
0 0.75 0
0.125 0.75 0
0.25 0.5 0
0.375 0.5 0
0.25 0.625 0
0.375 0.625 0
0.375 0.5 0
0.5 0.5 0
0.375 0.625 0
0.5 0.625 0
0.375 0.625 0
0.5 0.625 0
0.375 0.75 0
0.5 0.75 0
0.25 0.625 0
0.375 0.625 0
0.25 0.75 0
0.375 0.75 0
0.25 0.75 0
0.375 0.75 0
0.25 0.875 0
0.375 0.875 0
0.375 0.75 0
0.5 0.75 0
0.375 0.875 0
0.5 0.875 0
0.375 0.875 0
0.5 0.875 0
0.375 1 0
0.5 1 0
0.25 0.875 0
0.375 0.875 0
0.25 1 0
0.375 1 0
0 0.75 0
0.125 0.75 0
0 0.875 0
0.125 0.875 0
0.125 0.75 0
0.25 0.75 0
0.125 0.875 0
0.25 0.875 0
0.125 0.875 0
0.25 0.875 0
0.125 1 0
0.25 1 0
0 0.875 0
0.125 0.875 0
0 1 0
0.125 1 0
1 0 0
1.125 0 0
1 0.125 0
1.125 0.125 0
1.125 0 0
1.25 0 0
1.125 0.125 0
1.25 0.125 0
1.125 0.125 0
1.25 0.125 0
1.125 0.25 0
1.25 0.25 0
1 0.125 0
1.125 0.125 0
1 0.25 0
1.125 0.25 0
1.25 0 0
1.375 0 0
1.25 0.125 0
1.375 0.125 0
1.375 0 0
1.5 0 0
1.375 0.125 0
1.5 0.125 0
1.375 0.125 0
1.5 0.125 0
1.375 0.25 0
1.5 0.25 0
1.25 0.125 0
1.375 0.125 0
1.25 0.25 0
1.375 0.25 0
1.25 0.25 0
1.375 0.25 0
1.25 0.375 0
1.375 0.375 0
1.375 0.25 0
1.5 0.25 0
1.375 0.375 0
1.5 0.375 0
1.375 0.375 0
1.5 0.375 0
1.375 0.5 0
1.5 0.5 0
1.25 0.375 0
1.375 0.375 0
1.25 0.5 0
1.375 0.5 0
1 0.25 0
1.125 0.25 0
1 0.375 0
1.125 0.375 0
1.125 0.25 0
1.25 0.25 0
1.125 0.375 0
1.25 0.375 0
1.125 0.375 0
1.25 0.375 0
1.125 0.5 0
1.25 0.5 0
1 0.375 0
1.125 0.375 0
1 0.5 0
1.125 0.5 0
1.5 0 0
1.625 0 0
1.5 0.125 0
1.625 0.125 0
1.625 0 0
1.75 0 0
1.625 0.125 0
1.75 0.125 0
1.625 0.125 0
1.75 0.125 0
1.625 0.25 0
1.75 0.25 0
1.5 0.125 0
1.625 0.125 0
1.5 0.25 0
1.625 0.25 0
1.75 0 0
1.875 0 0
1.75 0.125 0
1.875 0.125 0
1.875 0 0
2 0 0
1.875 0.125 0
2 0.125 0
1.875 0.125 0
2 0.125 0
1.875 0.25 0
2 0.25 0
1.75 0.125 0
1.875 0.125 0
1.75 0.25 0
1.875 0.25 0
1.75 0.25 0
1.875 0.25 0
1.75 0.375 0
1.875 0.375 0
1.875 0.25 0
2 0.25 0
1.875 0.375 0
2 0.375 0
1.875 0.375 0
2 0.375 0
1.875 0.5 0
2 0.5 0
1.75 0.375 0
1.875 0.375 0
1.75 0.5 0
1.875 0.5 0
1.5 0.25 0
1.625 0.25 0
1.5 0.375 0
1.625 0.375 0
1.625 0.25 0
1.75 0.25 0
1.625 0.375 0
1.75 0.375 0
1.625 0.375 0
1.75 0.375 0
1.625 0.5 0
1.75 0.5 0
1.5 0.375 0
1.625 0.375 0
1.5 0.5 0
1.625 0.5 0
1.5 0.5 0
1.625 0.5 0
1.5 0.625 0
1.625 0.625 0
1.625 0.5 0
1.75 0.5 0
1.625 0.625 0
1.75 0.625 0
1.625 0.625 0
1.75 0.625 0
1.625 0.75 0
1.75 0.75 0
1.5 0.625 0
1.625 0.625 0
1.5 0.75 0
1.625 0.75 0
1.75 0.5 0
1.875 0.5 0
1.75 0.625 0
1.875 0.625 0
1.875 0.5 0
2 0.5 0
1.875 0.625 0
2 0.625 0
1.875 0.625 0
2 0.625 0
1.875 0.75 0
2 0.75 0
1.75 0.625 0
1.875 0.625 0
1.75 0.75 0
1.875 0.75 0
1.75 0.75 0
1.875 0.75 0
1.75 0.875 0
1.875 0.875 0
1.875 0.75 0
2 0.75 0
1.875 0.875 0
2 0.875 0
1.875 0.875 0
2 0.875 0
1.875 1 0
2 1 0
1.75 0.875 0
1.875 0.875 0
1.75 1 0
1.875 1 0
1.5 0.75 0
1.625 0.75 0
1.5 0.875 0
1.625 0.875 0
1.625 0.75 0
1.75 0.75 0
1.625 0.875 0
1.75 0.875 0
1.625 0.875 0
1.75 0.875 0
1.625 1 0
1.75 1 0
1.5 0.875 0
1.625 0.875 0
1.5 1 0
1.625 1 0
1 0.5 0
1.125 0.5 0
1 0.625 0
1.125 0.625 0
1.125 0.5 0
1.25 0.5 0
1.125 0.625 0
1.25 0.625 0
1.125 0.625 0
1.25 0.625 0
1.125 0.75 0
1.25 0.75 0
1 0.625 0
1.125 0.625 0
1 0.75 0
1.125 0.75 0
1.25 0.5 0
1.375 0.5 0
1.25 0.625 0
1.375 0.625 0
1.375 0.5 0
1.5 0.5 0
1.375 0.625 0
1.5 0.625 0
1.375 0.625 0
1.5 0.625 0
1.375 0.75 0
1.5 0.75 0
1.25 0.625 0
1.375 0.625 0
1.25 0.75 0
1.375 0.75 0
1.25 0.75 0
1.375 0.75 0
1.25 0.875 0
1.375 0.875 0
1.375 0.75 0
1.5 0.75 0
1.375 0.875 0
1.5 0.875 0
1.375 0.875 0
1.5 0.875 0
1.375 1 0
1.5 1 0
1.25 0.875 0
1.375 0.875 0
1.25 1 0
1.375 1 0
1 0.75 0
1.125 0.75 0
1 0.875 0
1.125 0.875 0
1.125 0.75 0
1.25 0.75 0
1.125 0.875 0
1.25 0.875 0
1.125 0.875 0
1.25 0.875 0
1.125 1 0
1.25 1 0
1 0.875 0
1.125 0.875 0
1 1 0
1.125 1 0
2 0 0
2.125 0 0
2 0.125 0
2.125 0.125 0
2.125 0 0
2.25 0 0
2.125 0.125 0
2.25 0.125 0
2.125 0.125 0
2.25 0.125 0
2.125 0.25 0
2.25 0.25 0
2 0.125 0
2.125 0.125 0
2 0.25 0
2.125 0.25 0
2.25 0 0
2.375 0 0
2.25 0.125 0
2.375 0.125 0
2.375 0 0
2.5 0 0
2.375 0.125 0
2.5 0.125 0
2.375 0.125 0
2.5 0.125 0
2.375 0.25 0
2.5 0.25 0
2.25 0.125 0
2.375 0.125 0
2.25 0.25 0
2.375 0.25 0
2.25 0.25 0
2.375 0.25 0
2.25 0.375 0
2.375 0.375 0
2.375 0.25 0
2.5 0.25 0
2.375 0.375 0
2.5 0.375 0
2.375 0.375 0
2.5 0.375 0
2.375 0.5 0
2.5 0.5 0
2.25 0.375 0
2.375 0.375 0
2.25 0.5 0
2.375 0.5 0
2 0.25 0
2.125 0.25 0
2 0.375 0
2.125 0.375 0
2.125 0.25 0
2.25 0.25 0
2.125 0.375 0
2.25 0.375 0
2.125 0.375 0
2.25 0.375 0
2.125 0.5 0
2.25 0.5 0
2 0.375 0
2.125 0.375 0
2 0.5 0
2.125 0.5 0
2.5 0 0
2.625 0 0
2.5 0.125 0
2.625 0.125 0
2.625 0 0
2.75 0 0
2.625 0.125 0
2.75 0.125 0
2.625 0.125 0
2.75 0.125 0
2.625 0.25 0
2.75 0.25 0
2.5 0.125 0
2.625 0.125 0
2.5 0.25 0
2.625 0.25 0
2.75 0 0
2.875 0 0
2.75 0.125 0
2.875 0.125 0
2.875 0 0
3 0 0
2.875 0.125 0
3 0.125 0
2.875 0.125 0
3 0.125 0
2.875 0.25 0
3 0.25 0
2.75 0.125 0
2.875 0.125 0
2.75 0.25 0
2.875 0.25 0
2.75 0.25 0
2.875 0.25 0
2.75 0.375 0
2.875 0.375 0
2.875 0.25 0
3 0.25 0
2.875 0.375 0
3 0.375 0
2.875 0.375 0
3 0.375 0
2.875 0.5 0
3 0.5 0
2.75 0.375 0
2.875 0.375 0
2.75 0.5 0
2.875 0.5 0
2.5 0.25 0
2.625 0.25 0
2.5 0.375 0
2.625 0.375 0
2.625 0.25 0
2.75 0.25 0
2.625 0.375 0
2.75 0.375 0
2.625 0.375 0
2.75 0.375 0
2.625 0.5 0
2.75 0.5 0
2.5 0.375 0
2.625 0.375 0
2.5 0.5 0
2.625 0.5 0
2.5 0.5 0
2.625 0.5 0
2.5 0.625 0
2.625 0.625 0
2.625 0.5 0
2.75 0.5 0
2.625 0.625 0
2.75 0.625 0
2.625 0.625 0
2.75 0.625 0
2.625 0.75 0
2.75 0.75 0
2.5 0.625 0
2.625 0.625 0
2.5 0.75 0
2.625 0.75 0
2.75 0.5 0
2.875 0.5 0
2.75 0.625 0
2.875 0.625 0
2.875 0.5 0
3 0.5 0
2.875 0.625 0
3 0.625 0
2.875 0.625 0
3 0.625 0
2.875 0.75 0
3 0.75 0
2.75 0.625 0
2.875 0.625 0
2.75 0.75 0
2.875 0.75 0
2.75 0.75 0
2.875 0.75 0
2.75 0.875 0
2.875 0.875 0
2.875 0.75 0
3 0.75 0
2.875 0.875 0
3 0.875 0
2.875 0.875 0
3 0.875 0
2.875 1 0
3 1 0
2.75 0.875 0
2.875 0.875 0
2.75 1 0
2.875 1 0
2.5 0.75 0
2.625 0.75 0
2.5 0.875 0
2.625 0.875 0
2.625 0.75 0
2.75 0.75 0
2.625 0.875 0
2.75 0.875 0
2.625 0.875 0
2.75 0.875 0
2.625 1 0
2.75 1 0
2.5 0.875 0
2.625 0.875 0
2.5 1 0
2.625 1 0
2 0.5 0
2.125 0.5 0
2 0.625 0
2.125 0.625 0
2.125 0.5 0
2.25 0.5 0
2.125 0.625 0
2.25 0.625 0
2.125 0.625 0
2.25 0.625 0
2.125 0.75 0
2.25 0.75 0
2 0.625 0
2.125 0.625 0
2 0.75 0
2.125 0.75 0
2.25 0.5 0
2.375 0.5 0
2.25 0.625 0
2.375 0.625 0
2.375 0.5 0
2.5 0.5 0
2.375 0.625 0
2.5 0.625 0
2.375 0.625 0
2.5 0.625 0
2.375 0.75 0
2.5 0.75 0
2.25 0.625 0
2.375 0.625 0
2.25 0.75 0
2.375 0.75 0
2.25 0.75 0
2.375 0.75 0
2.25 0.875 0
2.375 0.875 0
2.375 0.75 0
2.5 0.75 0
2.375 0.875 0
2.5 0.875 0
2.375 0.875 0
2.5 0.875 0
2.375 1 0
2.5 1 0
2.25 0.875 0
2.375 0.875 0
2.25 1 0
2.375 1 0
2 0.75 0
2.125 0.75 0
2 0.875 0
2.125 0.875 0
2.125 0.75 0
2.25 0.75 0
2.125 0.875 0
2.25 0.875 0
2.125 0.875 0
2.25 0.875 0
2.125 1 0
2.25 1 0
2 0.875 0
2.125 0.875 0
2 1 0
2.125 1 0
3 0 0
3.125 0 0
3 0.125 0
3.125 0.125 0
3.125 0 0
3.25 0 0
3.125 0.125 0
3.25 0.125 0
3.125 0.125 0
3.25 0.125 0
3.125 0.25 0
3.25 0.25 0
3 0.125 0
3.125 0.125 0
3 0.25 0
3.125 0.25 0
3.25 0 0
3.375 0 0
3.25 0.125 0
3.375 0.125 0
3.375 0 0
3.5 0 0
3.375 0.125 0
3.5 0.125 0
3.375 0.125 0
3.5 0.125 0
3.375 0.25 0
3.5 0.25 0
3.25 0.125 0
3.375 0.125 0
3.25 0.25 0
3.375 0.25 0
3.25 0.25 0
3.375 0.25 0
3.25 0.375 0
3.375 0.375 0
3.375 0.25 0
3.5 0.25 0
3.375 0.375 0
3.5 0.375 0
3.375 0.375 0
3.5 0.375 0
3.375 0.5 0
3.5 0.5 0
3.25 0.375 0
3.375 0.375 0
3.25 0.5 0
[...]
<CellData Scalars="attribute">
<DataArray type="Int32" Name="attribute" format="ascii">
1
1
1
1
1
1
1
1
1
1
1
1
1
1
1
1
1
1
1
1
1
1
1
1
1
1
1
1
1
1
1
1
1
1
1
1
1
1
1
1
1
1
1
1
1
1
1
1
1
1
1
1
1
1
1
1
1
1
1
1
1
1
1
1
1
1
1
1
1
1
1
1
1
1
1
1
1
1
1
1
1
1
1
1
1
1
1
1
1
1
1
1
1
1
1
1
1
1
1
1
1
1
1
1
1
1
1
1
1
1
1
1
1
1
1
1
1
1
1
1
1
1
1
1
1
1
1
1
1
1
1
1
1
1
1
1
1
1
1
1
1
1
1
1
1
1
1
1
1
1
1
1
1
1
1
1
1
1
1
1
1
1
1
1
1
1
1
1
1
1
1
1
1
1
1
1
1
1
1
1
1
1
1
1
1
1
1
1
1
1
1
1
1
1
1
1
1
1
1
1
1
1
1
1
1
1
1
1
1
1
1
1
1
1
1
1
1
1
1
1
1
1
1
1
1
1
1
1
1
1
1
1
1
1
1
1
1
1
1
1
1
1
1
1
1
1
1
1
1
1
1
1
1
1
1
1
2
2
2
2
2
2
2
2
2
2
2
2
2
2
2
2
2
2
2
2
2
2
2
2
2
2
2
2
2
2
2
2
2
2
2
2
2
2
2
2
2
2
2
2
2
2
2
2
2
2
2
2
2
2
2
2
2
2
2
2
2
2
2
2
2
2
2
2
2
2
2
2
2
2
2
2
2
2
2
2
2
2
2
2
2
2
2
2
2
2
2
2
2
2
2
2
2
2
2
2
2
2
2
2
2
2
2
2
2
2
2
2
2
2
2
2
2
2
2
2
2
2
2
2
2
2
2
2
2
2
2
2
2
2
2
2
2
2
2
2
2
2
2
2
2
2
2
2
2
2
2
2
2
2
2
2
2
2
2
2
2
2
2
2
2
2
2
2
2
2
2
2
2
2
2
2
2
2
2
2
2
2
2
2
2
2
2
2
2
2
2
2
2
2
2
2
2
2
2
2
2
2
2
2
2
2
2
2
2
2
2
2
2
2
2
2
2
2
2
2
2
2
2
2
2
2
2
2
2
2
2
2
2
2
2
2
2
2
2
2
2
2
2
2
2
2
2
2
2
2
2
2
2
2
2
2
</DataArray>
</CellData>
<PointData >
<DataArray type="Float64" Name="Pressure" NumberOfComponents="1" format="ascii" >
-7.58987e-05
-3.08971e-08
-0.000124199
-5.11452e-08
-3.08971e-08
5.42074e-13
-5.11452e-08
9.38698e-13
-5.11452e-08
9.38698e-13
-3.43359e-08
6.37441e-13
-0.000124199
-5.11452e-08
-8.27995e-05
-3.43359e-08
5.42074e-13
-6.13294e-18
9.38698e-13
-1.09491e-17
-6.13294e-18
7.05668e-23
-1.09491e-17
1.30608e-22
-1.09491e-17
1.30608e-22
-7.62335e-18
9.33992e-23
9.38698e-13
-1.09491e-17
6.37441e-13
-7.62335e-18
6.37441e-13
-7.62335e-18
3.26658e-13
-3.89539e-18
-7.62335e-18
9.33992e-23
-3.89539e-18
4.77755e-23
-3.89539e-18
4.77755e-23
-1.28869e-19
1.51495e-24
3.26658e-13
-3.89539e-18
1.15065e-14
-1.28869e-19
-8.27995e-05
-3.43359e-08
-4.14001e-05
-1.74355e-08
-3.43359e-08
6.37441e-13
-1.74355e-08
3.26658e-13
-1.74355e-08
3.26658e-13
-3.86117e-10
1.15065e-14
-4.14001e-05
-1.74355e-08
-4.75183e-10
-3.86117e-10
7.05668e-23
-4.20069e-28
1.30608e-22
-8.05734e-28
-4.20069e-28
4.30004e-33
-8.05734e-28
8.29421e-33
-8.05734e-28
8.29421e-33
-5.96819e-28
6.23184e-33
1.30608e-22
-8.05734e-28
9.33992e-23
-5.96819e-28
4.30004e-33
-1.06801e-38
8.29421e-33
-2.27037e-38
-1.06801e-38
1.64075e-43
-2.27037e-38
3.21234e-43
-2.27037e-38
3.21234e-43
-1.83501e-38
2.48747e-43
8.29421e-33
-2.27037e-38
6.23184e-33
-1.83501e-38
6.23184e-33
-1.83501e-38
3.23976e-33
-9.67487e-39
-1.83501e-38
2.48747e-43
-9.67487e-39
1.32096e-43
-9.67487e-39
1.32096e-43
-2.78749e-40
3.36306e-45
3.23976e-33
-9.67487e-39
9.29023e-35
-2.78749e-40
9.33992e-23
-5.96819e-28
4.77755e-23
-3.07158e-28
-5.96819e-28
6.23184e-33
-3.07158e-28
3.23976e-33
-3.07158e-28
3.23976e-33
-9.37667e-30
9.29023e-35
4.77755e-23
-3.07158e-28
1.51495e-24
-9.37667e-30
1.51495e-24
-9.37667e-30
-4.53905e-23
2.92543e-28
-9.37667e-30
9.29023e-35
2.92543e-28
-3.09802e-33
2.92543e-28
-3.09802e-33
5.9468e-28
-6.21536e-33
-4.53905e-23
2.92543e-28
-9.29602e-23
5.9468e-28
9.29023e-35
-2.78749e-40
-3.09802e-33
9.25254e-39
-2.78749e-40
3.36306e-45
9.25254e-39
-1.27109e-43
9.25254e-39
-1.27109e-43
1.83006e-38
-2.48344e-43
-3.09802e-33
9.25254e-39
-6.21536e-33
1.83006e-38
-6.21536e-33
1.83006e-38
-8.42654e-33
2.30494e-38
1.83006e-38
-2.48344e-43
2.30494e-38
-3.25729e-43
2.30494e-38
-3.25729e-43
1.0913e-38
-1.67251e-43
-8.42654e-33
2.30494e-38
-4.39681e-33
1.0913e-38
-9.29602e-23
5.9468e-28
-1.32936e-22
8.19444e-28
5.9468e-28
-6.21536e-33
8.19444e-28
-8.42654e-33
8.19444e-28
-8.42654e-33
4.30261e-28
-4.39681e-33
-1.32936e-22
8.19444e-28
-7.24214e-23
4.30261e-28
-4.75183e-10
-3.86117e-10
4.13993e-05
1.68124e-08
-3.86117e-10
1.15065e-14
1.68124e-08
-3.08129e-13
1.68124e-08
-3.08129e-13
3.416e-08
-6.3235e-13
4.13993e-05
1.68124e-08
8.27993e-05
3.416e-08
1.15065e-14
-1.28869e-19
-3.08129e-13
3.68995e-18
-1.28869e-19
1.51495e-24
3.68995e-18
-4.53905e-23
3.68995e-18
-4.53905e-23
7.57556e-18
-9.29602e-23
-3.08129e-13
3.68995e-18
-6.3235e-13
7.57556e-18
-6.3235e-13
7.57556e-18
-9.56052e-13
1.11527e-17
7.57556e-18
-9.29602e-23
1.11527e-17
-1.32936e-22
1.11527e-17
-1.32936e-22
6.3063e-18
-7.24214e-23
-9.56052e-13
1.11527e-17
-5.59847e-13
6.3063e-18
8.27993e-05
3.416e-08
0.000124199
5.17207e-08
3.416e-08
-6.3235e-13
5.17207e-08
-9.56052e-13
5.17207e-08
-9.56052e-13
3.15068e-08
-5.59847e-13
0.000124199
5.17207e-08
7.58994e-05
3.15068e-08
1.64075e-43
6.60348e-50
3.21234e-43
2.21582e-50
6.60348e-50
4.67184e-54
2.21582e-50
9.06596e-54
2.21582e-50
9.06596e-54
-4.52659e-50
7.07548e-54
3.21234e-43
2.21582e-50
2.48747e-43
-4.52659e-50
4.67184e-54
1.14631e-59
9.06596e-54
1.93931e-59
1.14631e-59
1.05121e-64
1.93931e-59
2.00327e-64
1.93931e-59
2.00327e-64
1.33808e-59
1.555e-64
9.06596e-54
1.93931e-59
7.07548e-54
1.33808e-59
7.07548e-54
1.33808e-59
3.81328e-54
6.97392e-60
1.33808e-59
1.555e-64
6.97392e-60
8.4315e-65
6.97392e-60
8.4315e-65
1.17177e-61
1.60394e-66
3.81328e-54
6.97392e-60
8.44844e-56
1.17177e-61
2.48747e-43
-4.52659e-50
1.32096e-43
-3.04826e-50
-4.52659e-50
7.07548e-54
-3.04826e-50
3.81328e-54
-3.04826e-50
3.81328e-54
-1.6903e-51
8.44844e-56
1.32096e-43
-3.04826e-50
3.36306e-45
-1.6903e-51
1.05121e-64
3.50865e-70
2.00327e-64
6.2889e-70
3.50865e-70
1.82072e-75
6.2889e-70
3.41983e-75
6.2889e-70
3.41983e-75
4.62003e-70
2.63631e-75
2.00327e-64
6.2889e-70
1.555e-64
4.62003e-70
1.82072e-75
6.15393e-81
3.41983e-75
1.1236e-80
6.15393e-81
2.34009e-86
1.1236e-80
4.35915e-86
1.1236e-80
4.35915e-86
8.44015e-81
3.34755e-86
3.41983e-75
1.1236e-80
2.63631e-75
8.44015e-81
2.63631e-75
8.44015e-81
1.43142e-75
4.53764e-81
8.44015e-81
3.34755e-86
4.53764e-81
1.81798e-86
4.53764e-81
1.81798e-86
6.52587e-83
2.54683e-88
1.43142e-75
4.53764e-81
2.33208e-77
6.52587e-83
1.555e-64
4.62003e-70
8.4315e-65
2.45993e-70
4.62003e-70
2.63631e-75
2.45993e-70
1.43142e-75
2.45993e-70
1.43142e-75
3.95222e-72
2.33208e-77
8.4315e-65
2.45993e-70
1.60394e-66
3.95222e-72
1.60394e-66
3.95222e-72
-8.20064e-65
-2.40401e-70
3.95222e-72
2.33208e-77
-2.40401e-70
-1.39809e-75
-2.40401e-70
-1.39809e-75
-4.62154e-70
-2.63539e-75
-8.20064e-65
-2.40401e-70
-1.55402e-64
-4.62154e-70
2.33208e-77
6.52587e-83
-1.39809e-75
-4.44535e-81
6.52587e-83
2.54683e-88
-4.44535e-81
-1.78174e-86
-4.44535e-81
-1.78174e-86
-8.44147e-81
-3.34695e-86
-1.39809e-75
-4.44535e-81
-2.63539e-75
-8.44147e-81
-2.63539e-75
-8.44147e-81
-3.45129e-75
-1.13333e-80
-8.44147e-81
-3.34695e-86
-1.13333e-80
-4.39415e-86
-1.13333e-80
-4.39415e-86
-6.22326e-81
-2.36492e-86
-3.45129e-75
-1.13333e-80
-1.84302e-75
-6.22326e-81
-1.55402e-64
-4.62154e-70
-2.02443e-64
-6.35128e-70
-4.62154e-70
-2.63539e-75
-6.35128e-70
-3.45129e-75
-6.35128e-70
-3.45129e-75
-3.55366e-70
-1.84302e-75
-2.02443e-64
-6.35128e-70
-1.06614e-64
-3.55366e-70
3.36306e-45
-1.6903e-51
-1.27109e-43
2.78395e-50
-1.6903e-51
8.44844e-56
2.78395e-50
-3.69031e-54
2.78395e-50
-3.69031e-54
4.4431e-50
-7.06814e-54
-1.27109e-43
2.78395e-50
-2.48344e-43
4.4431e-50
8.44844e-56
1.17177e-61
-3.69031e-54
-6.80893e-60
1.17177e-61
1.60394e-66
-6.80893e-60
-8.20064e-65
-6.80893e-60
-8.20064e-65
-1.33932e-59
-1.55402e-64
-3.69031e-54
-6.80893e-60
-7.06814e-54
-1.33932e-59
-7.06814e-54
-1.33932e-59
-9.1762e-54
-1.96119e-59
-1.33932e-59
-1.55402e-64
-1.96119e-59
-2.02443e-64
-1.96119e-59
-2.02443e-64
-1.16274e-59
-1.06614e-64
-9.1762e-54
-1.96119e-59
-4.74929e-54
-1.16274e-59
-2.48344e-43
4.4431e-50
-3.25729e-43
-2.22632e-50
4.4431e-50
-7.06814e-54
-2.22632e-50
-9.1762e-54
-2.22632e-50
-9.1762e-54
-6.66786e-50
-4.74929e-54
-3.25729e-43
-2.22632e-50
-1.67251e-43
-6.66786e-50
2.34009e-86
7.17694e-92
4.35915e-86
1.32008e-91
7.17694e-92
2.1882e-97
1.32008e-91
4.0595e-97
1.32008e-91
4.0595e-97
1.00215e-91
3.11368e-97
4.35915e-86
1.32008e-91
3.34755e-86
1.00215e-91
2.1882e-97
5.83523e-103
4.0595e-97
1.07654e-102
5.83523e-103
1.47354e-108
1.07654e-102
2.72827e-108
1.07654e-102
2.72827e-108
8.21816e-103
2.0929e-108
4.0595e-97
1.07654e-102
3.11368e-97
8.21816e-103
3.11368e-97
8.21816e-103
1.69134e-97
4.45439e-103
8.21816e-103
2.0929e-108
4.45439e-103
1.13721e-108
4.45439e-103
1.13721e-108
4.95357e-105
1.19488e-110
1.69134e-97
4.45439e-103
2.04789e-99
4.95357e-105
3.34755e-86
1.00215e-91
1.81798e-86
5.41614e-92
1.00215e-91
3.11368e-97
5.41614e-92
1.69134e-97
5.41614e-92
1.69134e-97
6.86869e-94
2.04789e-99
1.81798e-86
5.41614e-92
2.54683e-88
6.86869e-94
1.47354e-108
3.35002e-114
2.72827e-108
6.18746e-114
3.35002e-114
7.05341e-120
6.18746e-114
1.30462e-119
6.18746e-114
1.30462e-119
4.73818e-114
1.00141e-119
2.72827e-108
6.18746e-114
2.0929e-108
4.73818e-114
7.05341e-120
1.34431e-125
1.30462e-119
2.48371e-125
1.34431e-125
2.33211e-131
2.48371e-125
4.31093e-131
2.48371e-125
4.31093e-131
1.9055e-125
3.31135e-131
1.30462e-119
2.48371e-125
1.00141e-119
1.9055e-125
1.00141e-119
1.9055e-125
5.44293e-120
1.03533e-125
1.9055e-125
3.31135e-131
1.03533e-125
1.80018e-131
1.03533e-125
1.80018e-131
8.80349e-128
1.43464e-133
5.44293e-120
1.03533e-125
4.97627e-122
8.80349e-128
2.0929e-108
4.73818e-114
1.13721e-108
2.57225e-114
4.73818e-114
1.00141e-119
2.57225e-114
5.44293e-120
2.57225e-114
5.44293e-120
2.50246e-116
4.97627e-122
1.13721e-108
2.57225e-114
1.19488e-110
2.50246e-116
1.19488e-110
2.50246e-116
-1.12028e-108
-2.53687e-114
2.50246e-116
4.97627e-122
-2.53687e-114
-5.37247e-120
-2.53687e-114
-5.37247e-120
-4.73825e-114
-1.00139e-119
-1.12028e-108
-2.53687e-114
-2.0928e-108
-4.73825e-114
4.97627e-122
8.80349e-128
-5.37247e-120
-1.02288e-125
8.80349e-128
1.43464e-133
-1.02288e-125
-1.77988e-131
-1.02288e-125
-1.77988e-131
-1.90549e-125
-3.31128e-131
-5.37247e-120
-1.02288e-125
-1.00139e-119
-1.90549e-125
-1.00139e-119
-1.90549e-125
-1.31159e-119
-2.49612e-125
-1.90549e-125
-3.31128e-131
-2.49612e-125
-4.33102e-131
-2.49612e-125
-4.33102e-131
-1.3531e-125
-2.34635e-131
-1.31159e-119
-2.49612e-125
-7.10279e-120
-1.3531e-125
-2.0928e-108
-4.73825e-114
-2.74497e-108
-6.22293e-114
-4.73825e-114
-1.00139e-119
-6.22293e-114
-1.31159e-119
-6.22293e-114
-1.31159e-119
-3.37513e-114
-7.10279e-120
-2.74497e-108
-6.22293e-114
-1.48538e-108
-3.37513e-114
2.54683e-88
6.86869e-94
-1.78174e-86
-5.31903e-92
6.86869e-94
2.04789e-99
-5.31903e-92
-1.66228e-97
-5.31903e-92
-1.66228e-97
-1.00223e-91
-3.11341e-97
-1.78174e-86
-5.31903e-92
-3.34695e-86
-1.00223e-91
2.04789e-99
4.95357e-105
-1.66228e-97
-4.38436e-103
4.95357e-105
1.19488e-110
-4.38436e-103
-1.12028e-108
-4.38436e-103
-1.12028e-108
-8.21846e-103
-2.0928e-108
-1.66228e-97
-4.38436e-103
-3.11341e-97
-8.21846e-103
-3.11341e-97
-8.21846e-103
-4.08797e-97
-1.08362e-102
-8.21846e-103
-2.0928e-108
-1.08362e-102
-2.74497e-108
-1.08362e-102
-2.74497e-108
-5.88539e-103
-1.48538e-108
-4.08797e-97
-1.08362e-102
-2.20838e-97
-5.88539e-103
-3.34695e-86
-1.00223e-91
-4.39415e-86
-1.33005e-91
-1.00223e-91
-3.11341e-97
-1.33005e-91
-4.08797e-97
-1.33005e-91
-4.08797e-97
-7.24763e-92
-2.20838e-97
-4.39415e-86
-1.33005e-91
-2.36492e-86
-7.24763e-92
2.33211e-131
3.61926e-137
4.31093e-131
6.68655e-137
3.61926e-137
4.96164e-143
6.68655e-137
9.16768e-143
6.68655e-137
9.16768e-143
5.13594e-137
7.04639e-143
4.31093e-131
6.68655e-137
3.31135e-131
5.13594e-137
4.96164e-143
5.80003e-149
9.16768e-143
1.07134e-148
5.80003e-149
5.37018e-155
1.07134e-148
9.91906e-155
1.07134e-148
9.91906e-155
8.23546e-149
7.62785e-155
9.16768e-143
1.07134e-148
7.04639e-143
8.23546e-149
7.04639e-143
8.23546e-149
3.83115e-143
4.47738e-149
8.23546e-149
7.62785e-155
4.47738e-149
4.14744e-155
4.47738e-149
4.14744e-155
2.90732e-151
2.51949e-157
3.83115e-143
4.47738e-149
2.66457e-145
2.90732e-151
3.31135e-131
5.13594e-137
1.80018e-131
2.79174e-137
5.13594e-137
7.04639e-143
2.79174e-137
3.83115e-143
2.79174e-137
3.83115e-143
2.07431e-139
2.66457e-145
1.80018e-131
2.79174e-137
1.43464e-133
2.07431e-139
5.37018e-155
2.98013e-161
9.91906e-155
5.50332e-161
2.98013e-161
-1.43645e-167
5.50332e-161
-2.65239e-167
5.50332e-161
-2.65239e-167
4.23276e-161
-2.04055e-167
9.91906e-155
5.50332e-161
7.62785e-155
4.23276e-161
-1.43645e-167
-6.82906e-173
-2.65239e-167
-1.26077e-172
-6.82906e-173
-1.09899e-178
-1.26077e-172
-2.02871e-178
-1.26077e-172
-2.02871e-178
-9.70084e-173
-1.56124e-178
-2.65239e-167
-1.26077e-172
-2.04055e-167
-9.70084e-173
-2.04055e-167
-9.70084e-173
-1.10947e-167
-5.27421e-173
-9.70084e-173
-1.56124e-178
-5.27421e-173
-8.48805e-179
-5.27421e-173
-8.48805e-179
-2.61787e-175
-3.94099e-181
-1.10947e-167
-5.27421e-173
-5.89047e-170
-2.61787e-175
7.62785e-155
4.23276e-161
4.14744e-155
2.30135e-161
4.23276e-161
-2.04055e-167
2.30135e-161
-1.10947e-167
2.30135e-161
-1.10947e-167
1.30629e-163
-5.89047e-170
4.14744e-155
2.30135e-161
2.51949e-157
1.30629e-163
2.51949e-157
1.30629e-163
-4.11176e-155
-2.28285e-161
1.30629e-163
-5.89047e-170
-2.28285e-161
1.10112e-167
-2.28285e-161
1.10112e-167
-4.23265e-161
2.0405e-167
-4.11176e-155
-2.28285e-161
-7.62766e-155
-4.23265e-161
-5.89047e-170
-2.61787e-175
1.10112e-167
5.23711e-173
-2.61787e-175
-3.94099e-181
5.23711e-173
8.43218e-179
5.23711e-173
8.43218e-179
9.70055e-173
1.56119e-178
1.10112e-167
5.23711e-173
2.0405e-167
9.70055e-173
2.0405e-167
9.70055e-173
2.66059e-167
1.26441e-172
9.70055e-173
1.56119e-178
1.26441e-172
2.03418e-178
1.26441e-172
2.03418e-178
6.85482e-173
1.10286e-178
2.66059e-167
1.26441e-172
1.44225e-167
6.85482e-173
-7.62766e-155
-4.23265e-161
-9.95423e-155
-5.52154e-161
-4.23265e-161
2.0405e-167
-5.52154e-161
2.66059e-167
-5.52154e-161
2.66059e-167
-2.99303e-161
1.44225e-167
-9.95423e-155
-5.52154e-161
-5.39508e-155
-2.99303e-161
1.43464e-133
2.07431e-139
-1.77988e-131
-2.76239e-137
2.07431e-139
2.66457e-145
-2.76239e-137
-3.79343e-143
-2.76239e-137
-3.79343e-143
-5.13588e-137
-7.04623e-143
-1.77988e-131
-2.76239e-137
-3.31128e-131
-5.13588e-137
2.66457e-145
2.90732e-151
-3.79343e-143
-4.43623e-149
2.90732e-151
2.51949e-157
-4.43623e-149
-4.11176e-155
-4.43623e-149
-4.11176e-155
-8.2353e-149
-7.62766e-155
-3.79343e-143
-4.43623e-149
-7.04623e-143
-8.2353e-149
-7.04623e-143
-8.2353e-149
-9.20495e-143
-1.07541e-148
-8.2353e-149
-7.62766e-155
-1.07541e-148
-9.95423e-155
-1.07541e-148
-9.95423e-155
-5.82884e-149
-5.39508e-155
-9.20495e-143
-1.07541e-148
-4.98803e-143
-5.82884e-149
-3.31128e-131
-5.13588e-137
-4.33102e-131
-6.71568e-137
-5.13588e-137
-7.04623e-143
-6.71568e-137
-9.20495e-143
-6.71568e-137
-9.20495e-143
-3.63988e-137
-4.98803e-143
-4.33102e-131
-6.71568e-137
-2.34635e-131
-3.63988e-137
-1.09899e-178
-1.13548e-184
-2.02871e-178
-2.09577e-184
-1.13548e-184
-6.5424e-191
-2.09577e-184
-1.20741e-190
-2.09577e-184
-1.20741e-190
-1.61305e-184
-9.29418e-191
-2.02871e-178
-2.09577e-184
-1.56124e-178
-1.61305e-184
-6.5424e-191
2.20069e-197
-1.20741e-190
4.06091e-197
2.20069e-197
1.08515e-202
4.06091e-197
2.00219e-202
4.06091e-197
2.00219e-202
3.12626e-197
1.54152e-202
-1.20741e-190
4.06091e-197
-9.29418e-191
3.12626e-197
-9.29418e-191
3.12626e-197
-5.05257e-191
1.69944e-197
3.12626e-197
1.54152e-202
1.69944e-197
8.37932e-203
1.69944e-197
8.37932e-203
6.45816e-200
2.97968e-205
-5.05257e-191
1.69944e-197
-2.05252e-193
6.45816e-200
-1.56124e-178
-1.61305e-184
-8.48805e-179
-8.76931e-185
-1.61305e-184
-9.29418e-191
-8.76931e-185
-5.05257e-191
-8.76931e-185
-5.05257e-191
-3.8078e-187
-2.05252e-193
-8.48805e-179
-8.76931e-185
-3.94099e-181
-3.8078e-187
1.08515e-202
1.44705e-208
2.00219e-202
2.66964e-208
1.44705e-208
1.03542e-214
2.66964e-208
1.91005e-214
2.66964e-208
1.91005e-214
2.05557e-208
1.47081e-214
2.00219e-202
2.66964e-208
1.54152e-202
2.05557e-208
1.03542e-214
3.82442e-222
1.91005e-214
7.0542e-222
3.82442e-222
-9.54671e-227
7.0542e-222
-1.76076e-226
7.0542e-222
-1.76076e-226
5.43231e-222
-1.35602e-226
1.91005e-214
7.0542e-222
1.47081e-214
5.43231e-222
1.47081e-214
5.43231e-222
7.99415e-215
2.95241e-222
5.43231e-222
-1.35602e-226
2.95241e-222
-7.36953e-227
2.95241e-222
-7.36953e-227
8.6083e-225
-2.0113e-229
7.99415e-215
2.95241e-222
2.48974e-217
8.6083e-225
1.54152e-202
2.05557e-208
8.37932e-203
1.1173e-208
2.05557e-208
1.47081e-214
1.1173e-208
7.99415e-215
1.1173e-208
7.99415e-215
3.71791e-211
2.48974e-217
8.37932e-203
1.1173e-208
2.97968e-205
3.71791e-211
2.97968e-205
3.71791e-211
-8.33701e-203
-1.11201e-208
3.71791e-211
2.48974e-217
-1.11201e-208
-7.95876e-215
-1.11201e-208
-7.95876e-215
-2.05548e-208
-1.47075e-214
-8.33701e-203
-1.11201e-208
-1.54146e-202
-2.05548e-208
2.48974e-217
8.6083e-225
-7.95876e-215
-2.94017e-222
8.6083e-225
-2.0113e-229
-2.94017e-222
7.34091e-227
-2.94017e-222
7.34091e-227
-5.43207e-222
1.35596e-226
-7.95876e-215
-2.94017e-222
-1.47075e-214
-5.43207e-222
-1.47075e-214
-5.43207e-222
-1.91346e-214
-7.06594e-222
-5.43207e-222
1.35596e-226
-7.06594e-222
1.7635e-226
-7.06594e-222
1.7635e-226
-3.83273e-222
9.56607e-227
-1.91346e-214
-7.06594e-222
-1.03784e-214
-3.83273e-222
-1.54146e-202
-2.05548e-208
-2.00629e-202
-2.67474e-208
-2.05548e-208
-1.47075e-214
-2.67474e-208
-1.91346e-214
-2.67474e-208
-1.91346e-214
-1.45066e-208
-1.03784e-214
-2.00629e-202
-2.67474e-208
-1.08805e-202
-1.45066e-208
-3.94099e-181
-3.8078e-187
8.43218e-179
8.71531e-185
-3.8078e-187
-2.05252e-193
8.71531e-185
5.02345e-191
8.71531e-185
5.02345e-191
1.61299e-184
9.29384e-191
8.43218e-179
8.71531e-185
1.56119e-178
1.61299e-184
-2.05252e-193
6.45816e-200
5.02345e-191
-1.69027e-197
6.45816e-200
2.97968e-205
-1.69027e-197
-8.33701e-203
-1.69027e-197
-8.33701e-203
-3.12614e-197
-1.54146e-202
5.02345e-191
-1.69027e-197
9.29384e-191
-3.12614e-197
9.29384e-191
-3.12614e-197
1.21024e-190
-4.06981e-197
-3.12614e-197
-1.54146e-202
-4.06981e-197
-2.00629e-202
-4.06981e-197
-2.00629e-202
-2.20699e-197
-1.08805e-202
1.21024e-190
-4.06981e-197
6.56248e-191
-2.20699e-197
1.56119e-178
1.61299e-184
2.03418e-178
2.10105e-184
1.61299e-184
9.29384e-191
2.10105e-184
1.21024e-190
2.10105e-184
1.21024e-190
1.13921e-184
6.56248e-191
2.03418e-178
2.10105e-184
1.10286e-178
1.13921e-184
-9.54671e-227
-1.32076e-232
-1.76076e-226
-2.43575e-232
-1.32076e-232
-8.46702e-239
-2.43575e-232
-1.56137e-238
-2.43575e-232
-1.56137e-238
-1.87595e-232
-1.20259e-238
-1.76076e-226
-2.43575e-232
-1.35602e-226
-1.87595e-232
-8.46702e-239
1.02399e-245
-1.56137e-238
1.88816e-245
1.02399e-245
8.49116e-251
1.88816e-245
1.56559e-250
1.88816e-245
1.56559e-250
1.45436e-245
1.20594e-250
-1.56137e-238
1.88816e-245
-1.20259e-238
1.45436e-245
-1.20259e-238
1.45436e-245
-6.53505e-239
7.90287e-246
1.45436e-245
1.20594e-250
7.90287e-246
6.55271e-251
7.90287e-246
6.55271e-251
1.77134e-248
1.37594e-253
-6.53505e-239
7.90287e-246
-1.56393e-241
1.77134e-248
-1.35602e-226
-1.87595e-232
-7.36953e-227
-1.01947e-232
-1.87595e-232
-1.20259e-238
-1.01947e-232
-6.53505e-239
-1.01947e-232
-6.53505e-239
-2.60519e-235
-1.56393e-241
-7.36953e-227
-1.01947e-232
-2.0113e-229
-2.60519e-235
8.49116e-251
9.13403e-257
1.56559e-250
1.68401e-256
9.13403e-257
3.56107e-263
1.68401e-256
6.56502e-263
1.68401e-256
6.56502e-263
1.29721e-256
5.05726e-263
1.56559e-250
1.68401e-256
1.20594e-250
1.29721e-256
3.56107e-263
-3.2076e-269
6.56502e-263
-5.91302e-269
-3.2076e-269
-6.12004e-275
-5.91302e-269
-1.12813e-274
-5.91302e-269
-1.12813e-274
-4.55515e-269
-8.69091e-275
6.56502e-263
-5.91302e-269
5.05726e-263
-4.55515e-269
5.05726e-263
-4.55515e-269
2.74773e-263
-2.47483e-269
-4.55515e-269
-8.69091e-275
-2.47483e-269
-4.72164e-275
-2.47483e-269
-4.72164e-275
-4.27729e-272
-7.65109e-278
2.74773e-263
-2.47483e-269
5.06644e-266
-4.27729e-272
1.20594e-250
1.29721e-256
6.55271e-251
7.04832e-257
1.29721e-256
5.05726e-263
7.04832e-257
2.74773e-263
7.04832e-257
2.74773e-263
1.38674e-259
5.06644e-266
6.55271e-251
7.04832e-257
1.37594e-253
1.38674e-259
1.37594e-253
1.38674e-259
-6.53308e-251
-7.02851e-257
1.38674e-259
5.06644e-266
-7.02851e-257
-2.74049e-263
-7.02851e-257
-2.74049e-263
-1.29714e-256
-5.057e-263
-6.53308e-251
-7.02851e-257
-1.20588e-250
-1.29714e-256
5.06644e-266
-4.27729e-272
-2.74049e-263
2.46871e-269
-4.27729e-272
-7.65109e-278
2.46871e-269
4.71069e-275
2.46871e-269
4.71069e-275
4.55491e-269
8.69045e-275
-2.74049e-263
2.46871e-269
-5.057e-263
4.55491e-269
-5.057e-263
4.55491e-269
-6.57175e-263
5.91867e-269