<VTKFile type="UnstructuredGrid" version="0.1" byte_order="LittleEndian">
<UnstructuredGrid>
<Piece NumberOfPoints="2048" NumberOfCells="512">
<Points>
<DataArray type="Float64" NumberOfComponents="3" format="ascii">
0 0 0
0.125 0 0
0 0.125 0
0.125 0.125 0
0.125 0 0
0.25 0 0
0.125 0.125 0
0.25 0.125 0
0.125 0.125 0
0.25 0.125 0
0.125 0.25 0
0.25 0.25 0
0 0.125 0
0.125 0.125 0
0 0.25 0
0.125 0.25 0
0.25 0 0
0.375 0 0
0.25 0.125 0
0.375 0.125 0
0.375 0 0
0.5 0 0
0.375 0.125 0
0.5 0.125 0
0.375 0.125 0
0.5 0.125 0
0.375 0.25 0
0.5 0.25 0
0.25 0.125 0
0.375 0.125 0
0.25 0.25 0
0.375 0.25 0
0.25 0.25 0
0.375 0.25 0
0.25 0.375 0
0.375 0.375 0
0.375 0.25 0
0.5 0.25 0
0.375 0.375 0
0.5 0.375 0
0.375 0.375 0
0.5 0.375 0
0.375 0.5 0
0.5 0.5 0
0.25 0.375 0
0.375 0.375 0
0.25 0.5 0
0.375 0.5 0
0 0.25 0
0.125 0.25 0
0 0.375 0
0.125 0.375 0
0.125 0.25 0
0.25 0.25 0
0.125 0.375 0
0.25 0.375 0
0.125 0.375 0
0.25 0.375 0
0.125 0.5 0
0.25 0.5 0
0 0.375 0
0.125 0.375 0
0 0.5 0
0.125 0.5 0
0.5 0 0
0.625 0 0
0.5 0.125 0
0.625 0.125 0
0.625 0 0
0.75 0 0
0.625 0.125 0
0.75 0.125 0
0.625 0.125 0
0.75 0.125 0
0.625 0.25 0
0.75 0.25 0
0.5 0.125 0
0.625 0.125 0
0.5 0.25 0
0.625 0.25 0
0.75 0 0
0.875 0 0
0.75 0.125 0
0.875 0.125 0
0.875 0 0
1 0 0
0.875 0.125 0
1 0.125 0
0.875 0.125 0
1 0.125 0
0.875 0.25 0
1 0.25 0
0.75 0.125 0
0.875 0.125 0
0.75 0.25 0
0.875 0.25 0
0.75 0.25 0
0.875 0.25 0
0.75 0.375 0
0.875 0.375 0
0.875 0.25 0
1 0.25 0
0.875 0.375 0
1 0.375 0
0.875 0.375 0
1 0.375 0
0.875 0.5 0
1 0.5 0
0.75 0.375 0
0.875 0.375 0
0.75 0.5 0
0.875 0.5 0
0.5 0.25 0
0.625 0.25 0
0.5 0.375 0
0.625 0.375 0
0.625 0.25 0
0.75 0.25 0
0.625 0.375 0
0.75 0.375 0
0.625 0.375 0
0.75 0.375 0
0.625 0.5 0
0.75 0.5 0
0.5 0.375 0
0.625 0.375 0
0.5 0.5 0
0.625 0.5 0
0.5 0.5 0
0.625 0.5 0
0.5 0.625 0
0.625 0.625 0
0.625 0.5 0
0.75 0.5 0
0.625 0.625 0
0.75 0.625 0
0.625 0.625 0
0.75 0.625 0
0.625 0.75 0
0.75 0.75 0
0.5 0.625 0
0.625 0.625 0
0.5 0.75 0
0.625 0.75 0
0.75 0.5 0
0.875 0.5 0
0.75 0.625 0
0.875 0.625 0
0.875 0.5 0
1 0.5 0
0.875 0.625 0
1 0.625 0
0.875 0.625 0
1 0.625 0
0.875 0.75 0
1 0.75 0
0.75 0.625 0
0.875 0.625 0
0.75 0.75 0
0.875 0.75 0
0.75 0.75 0
0.875 0.75 0
0.75 0.875 0
0.875 0.875 0
0.875 0.75 0
1 0.75 0
0.875 0.875 0
1 0.875 0
0.875 0.875 0
1 0.875 0
0.875 1 0
1 1 0
0.75 0.875 0
0.875 0.875 0
0.75 1 0
0.875 1 0
0.5 0.75 0
0.625 0.75 0
0.5 0.875 0
0.625 0.875 0
0.625 0.75 0
0.75 0.75 0
0.625 0.875 0
0.75 0.875 0
0.625 0.875 0
0.75 0.875 0
0.625 1 0
0.75 1 0
0.5 0.875 0
0.625 0.875 0
0.5 1 0
0.625 1 0
0 0.5 0
0.125 0.5 0
0 0.625 0
0.125 0.625 0
0.125 0.5 0
0.25 0.5 0
0.125 0.625 0
0.25 0.625 0
0.125 0.625 0
0.25 0.625 0
0.125 0.75 0
0.25 0.75 0
0 0.625 0
0.125 0.625 0
0 0.75 0
0.125 0.75 0
0.25 0.5 0
0.375 0.5 0
0.25 0.625 0
0.375 0.625 0
0.375 0.5 0
0.5 0.5 0
0.375 0.625 0
0.5 0.625 0
0.375 0.625 0
0.5 0.625 0
0.375 0.75 0
0.5 0.75 0
0.25 0.625 0
0.375 0.625 0
0.25 0.75 0
0.375 0.75 0
0.25 0.75 0
0.375 0.75 0
0.25 0.875 0
0.375 0.875 0
0.375 0.75 0
0.5 0.75 0
0.375 0.875 0
0.5 0.875 0
0.375 0.875 0
0.5 0.875 0
0.375 1 0
0.5 1 0
0.25 0.875 0
0.375 0.875 0
0.25 1 0
0.375 1 0
0 0.75 0
0.125 0.75 0
0 0.875 0
0.125 0.875 0
0.125 0.75 0
0.25 0.75 0
0.125 0.875 0
0.25 0.875 0
0.125 0.875 0
0.25 0.875 0
0.125 1 0
0.25 1 0
0 0.875 0
0.125 0.875 0
0 1 0
0.125 1 0
1 0 0
1.125 0 0
1 0.125 0
1.125 0.125 0
1.125 0 0
1.25 0 0
1.125 0.125 0
1.25 0.125 0
1.125 0.125 0
1.25 0.125 0
1.125 0.25 0
1.25 0.25 0
1 0.125 0
1.125 0.125 0
1 0.25 0
1.125 0.25 0
1.25 0 0
1.375 0 0
1.25 0.125 0
1.375 0.125 0
1.375 0 0
1.5 0 0
1.375 0.125 0
1.5 0.125 0
1.375 0.125 0
1.5 0.125 0
1.375 0.25 0
1.5 0.25 0
1.25 0.125 0
1.375 0.125 0
1.25 0.25 0
1.375 0.25 0
1.25 0.25 0
1.375 0.25 0
1.25 0.375 0
1.375 0.375 0
1.375 0.25 0
1.5 0.25 0
1.375 0.375 0
1.5 0.375 0
1.375 0.375 0
1.5 0.375 0
1.375 0.5 0
1.5 0.5 0
1.25 0.375 0
1.375 0.375 0
1.25 0.5 0
1.375 0.5 0
1 0.25 0
1.125 0.25 0
1 0.375 0
1.125 0.375 0
1.125 0.25 0
1.25 0.25 0
1.125 0.375 0
1.25 0.375 0
1.125 0.375 0
1.25 0.375 0
1.125 0.5 0
1.25 0.5 0
1 0.375 0
1.125 0.375 0
1 0.5 0
1.125 0.5 0
1.5 0 0
1.625 0 0
1.5 0.125 0
1.625 0.125 0
1.625 0 0
1.75 0 0
1.625 0.125 0
1.75 0.125 0
1.625 0.125 0
1.75 0.125 0
1.625 0.25 0
1.75 0.25 0
1.5 0.125 0
1.625 0.125 0
1.5 0.25 0
1.625 0.25 0
1.75 0 0
1.875 0 0
1.75 0.125 0
1.875 0.125 0
1.875 0 0
2 0 0
1.875 0.125 0
2 0.125 0
1.875 0.125 0
2 0.125 0
1.875 0.25 0
2 0.25 0
1.75 0.125 0
1.875 0.125 0
1.75 0.25 0
1.875 0.25 0
1.75 0.25 0
1.875 0.25 0
1.75 0.375 0
1.875 0.375 0
1.875 0.25 0
2 0.25 0
1.875 0.375 0
2 0.375 0
1.875 0.375 0
2 0.375 0
1.875 0.5 0
2 0.5 0
1.75 0.375 0
1.875 0.375 0
1.75 0.5 0
1.875 0.5 0
1.5 0.25 0
1.625 0.25 0
1.5 0.375 0
1.625 0.375 0
1.625 0.25 0
1.75 0.25 0
1.625 0.375 0
1.75 0.375 0
1.625 0.375 0
1.75 0.375 0
1.625 0.5 0
1.75 0.5 0
1.5 0.375 0
1.625 0.375 0
1.5 0.5 0
1.625 0.5 0
1.5 0.5 0
1.625 0.5 0
1.5 0.625 0
1.625 0.625 0
1.625 0.5 0
1.75 0.5 0
1.625 0.625 0
1.75 0.625 0
1.625 0.625 0
1.75 0.625 0
1.625 0.75 0
1.75 0.75 0
1.5 0.625 0
1.625 0.625 0
1.5 0.75 0
1.625 0.75 0
1.75 0.5 0
1.875 0.5 0
1.75 0.625 0
1.875 0.625 0
1.875 0.5 0
2 0.5 0
1.875 0.625 0
2 0.625 0
1.875 0.625 0
2 0.625 0
1.875 0.75 0
2 0.75 0
1.75 0.625 0
1.875 0.625 0
1.75 0.75 0
1.875 0.75 0
1.75 0.75 0
1.875 0.75 0
1.75 0.875 0
1.875 0.875 0
1.875 0.75 0
2 0.75 0
1.875 0.875 0
2 0.875 0
1.875 0.875 0
2 0.875 0
1.875 1 0
2 1 0
1.75 0.875 0
1.875 0.875 0
1.75 1 0
1.875 1 0
1.5 0.75 0
1.625 0.75 0
1.5 0.875 0
1.625 0.875 0
1.625 0.75 0
1.75 0.75 0
1.625 0.875 0
1.75 0.875 0
1.625 0.875 0
1.75 0.875 0
1.625 1 0
1.75 1 0
1.5 0.875 0
1.625 0.875 0
1.5 1 0
1.625 1 0
1 0.5 0
1.125 0.5 0
1 0.625 0
1.125 0.625 0
1.125 0.5 0
1.25 0.5 0
1.125 0.625 0
1.25 0.625 0
1.125 0.625 0
1.25 0.625 0
1.125 0.75 0
1.25 0.75 0
1 0.625 0
1.125 0.625 0
1 0.75 0
1.125 0.75 0
1.25 0.5 0
1.375 0.5 0
1.25 0.625 0
1.375 0.625 0
1.375 0.5 0
1.5 0.5 0
1.375 0.625 0
1.5 0.625 0
1.375 0.625 0
1.5 0.625 0
1.375 0.75 0
1.5 0.75 0
1.25 0.625 0
1.375 0.625 0
1.25 0.75 0
1.375 0.75 0
1.25 0.75 0
1.375 0.75 0
1.25 0.875 0
1.375 0.875 0
1.375 0.75 0
1.5 0.75 0
1.375 0.875 0
1.5 0.875 0
1.375 0.875 0
1.5 0.875 0
1.375 1 0
1.5 1 0
1.25 0.875 0
1.375 0.875 0
1.25 1 0
1.375 1 0
1 0.75 0
1.125 0.75 0
1 0.875 0
1.125 0.875 0
1.125 0.75 0
1.25 0.75 0
1.125 0.875 0
1.25 0.875 0
1.125 0.875 0
1.25 0.875 0
1.125 1 0
1.25 1 0
1 0.875 0
1.125 0.875 0
1 1 0
1.125 1 0
2 0 0
2.125 0 0
2 0.125 0
2.125 0.125 0
2.125 0 0
2.25 0 0
2.125 0.125 0
2.25 0.125 0
2.125 0.125 0
2.25 0.125 0
2.125 0.25 0
2.25 0.25 0
2 0.125 0
2.125 0.125 0
2 0.25 0
2.125 0.25 0
2.25 0 0
2.375 0 0
2.25 0.125 0
2.375 0.125 0
2.375 0 0
2.5 0 0
2.375 0.125 0
2.5 0.125 0
2.375 0.125 0
2.5 0.125 0
2.375 0.25 0
2.5 0.25 0
2.25 0.125 0
2.375 0.125 0
2.25 0.25 0
2.375 0.25 0
2.25 0.25 0
2.375 0.25 0
2.25 0.375 0
2.375 0.375 0
2.375 0.25 0
2.5 0.25 0
2.375 0.375 0
2.5 0.375 0
2.375 0.375 0
2.5 0.375 0
2.375 0.5 0
2.5 0.5 0
2.25 0.375 0
2.375 0.375 0
2.25 0.5 0
2.375 0.5 0
2 0.25 0
2.125 0.25 0
2 0.375 0
2.125 0.375 0
2.125 0.25 0
2.25 0.25 0
2.125 0.375 0
2.25 0.375 0
2.125 0.375 0
2.25 0.375 0
2.125 0.5 0
2.25 0.5 0
2 0.375 0
2.125 0.375 0
2 0.5 0
2.125 0.5 0
2.5 0 0
2.625 0 0
2.5 0.125 0
2.625 0.125 0
2.625 0 0
2.75 0 0
2.625 0.125 0
2.75 0.125 0
2.625 0.125 0
2.75 0.125 0
2.625 0.25 0
2.75 0.25 0
2.5 0.125 0
2.625 0.125 0
2.5 0.25 0
2.625 0.25 0
2.75 0 0
2.875 0 0
2.75 0.125 0
2.875 0.125 0
2.875 0 0
3 0 0
2.875 0.125 0
3 0.125 0
2.875 0.125 0
3 0.125 0
2.875 0.25 0
3 0.25 0
2.75 0.125 0
2.875 0.125 0
2.75 0.25 0
2.875 0.25 0
2.75 0.25 0
2.875 0.25 0
2.75 0.375 0
2.875 0.375 0
2.875 0.25 0
3 0.25 0
2.875 0.375 0
3 0.375 0
2.875 0.375 0
3 0.375 0
2.875 0.5 0
3 0.5 0
2.75 0.375 0
2.875 0.375 0
2.75 0.5 0
2.875 0.5 0
2.5 0.25 0
2.625 0.25 0
2.5 0.375 0
2.625 0.375 0
2.625 0.25 0
2.75 0.25 0
2.625 0.375 0
2.75 0.375 0
2.625 0.375 0
2.75 0.375 0
2.625 0.5 0
2.75 0.5 0
2.5 0.375 0
2.625 0.375 0
2.5 0.5 0
2.625 0.5 0
2.5 0.5 0
2.625 0.5 0
2.5 0.625 0
2.625 0.625 0
2.625 0.5 0
2.75 0.5 0
2.625 0.625 0
2.75 0.625 0
2.625 0.625 0
2.75 0.625 0
2.625 0.75 0
2.75 0.75 0
2.5 0.625 0
2.625 0.625 0
2.5 0.75 0
2.625 0.75 0
2.75 0.5 0
2.875 0.5 0
2.75 0.625 0
2.875 0.625 0
2.875 0.5 0
3 0.5 0
2.875 0.625 0
3 0.625 0
2.875 0.625 0
3 0.625 0
2.875 0.75 0
3 0.75 0
2.75 0.625 0
2.875 0.625 0
2.75 0.75 0
2.875 0.75 0
2.75 0.75 0
2.875 0.75 0
2.75 0.875 0
2.875 0.875 0
2.875 0.75 0
3 0.75 0
2.875 0.875 0
3 0.875 0
2.875 0.875 0
3 0.875 0
2.875 1 0
3 1 0
2.75 0.875 0
2.875 0.875 0
2.75 1 0
2.875 1 0
2.5 0.75 0
2.625 0.75 0
2.5 0.875 0
2.625 0.875 0
2.625 0.75 0
2.75 0.75 0
2.625 0.875 0
2.75 0.875 0
2.625 0.875 0
2.75 0.875 0
2.625 1 0
2.75 1 0
2.5 0.875 0
2.625 0.875 0
2.5 1 0
2.625 1 0
2 0.5 0
2.125 0.5 0
2 0.625 0
2.125 0.625 0
2.125 0.5 0
2.25 0.5 0
2.125 0.625 0
2.25 0.625 0
2.125 0.625 0
2.25 0.625 0
2.125 0.75 0
2.25 0.75 0
2 0.625 0
2.125 0.625 0
2 0.75 0
2.125 0.75 0
2.25 0.5 0
2.375 0.5 0
2.25 0.625 0
2.375 0.625 0
2.375 0.5 0
2.5 0.5 0
2.375 0.625 0
2.5 0.625 0
2.375 0.625 0
2.5 0.625 0
2.375 0.75 0
2.5 0.75 0
2.25 0.625 0
2.375 0.625 0
2.25 0.75 0
2.375 0.75 0
2.25 0.75 0
2.375 0.75 0
2.25 0.875 0
2.375 0.875 0
2.375 0.75 0
2.5 0.75 0
2.375 0.875 0
2.5 0.875 0
2.375 0.875 0
2.5 0.875 0
2.375 1 0
2.5 1 0
2.25 0.875 0
2.375 0.875 0
2.25 1 0
2.375 1 0
2 0.75 0
2.125 0.75 0
2 0.875 0
2.125 0.875 0
2.125 0.75 0
2.25 0.75 0
2.125 0.875 0
2.25 0.875 0
2.125 0.875 0
2.25 0.875 0
2.125 1 0
2.25 1 0
2 0.875 0
2.125 0.875 0
2 1 0
2.125 1 0
3 0 0
3.125 0 0
3 0.125 0
3.125 0.125 0
3.125 0 0
3.25 0 0
3.125 0.125 0
3.25 0.125 0
3.125 0.125 0
3.25 0.125 0
3.125 0.25 0
3.25 0.25 0
3 0.125 0
3.125 0.125 0
3 0.25 0
3.125 0.25 0
3.25 0 0
3.375 0 0
3.25 0.125 0
3.375 0.125 0
3.375 0 0
3.5 0 0
3.375 0.125 0
3.5 0.125 0
3.375 0.125 0
3.5 0.125 0
3.375 0.25 0
3.5 0.25 0
3.25 0.125 0
3.375 0.125 0
3.25 0.25 0
3.375 0.25 0
3.25 0.25 0
3.375 0.25 0
3.25 0.375 0
3.375 0.375 0
3.375 0.25 0
3.5 0.25 0
3.375 0.375 0
3.5 0.375 0
3.375 0.375 0
3.5 0.375 0
3.375 0.5 0
3.5 0.5 0
3.25 0.375 0
3.375 0.375 0
3.25 0.5 0
[...]
<CellData Scalars="attribute">
<DataArray type="Int32" Name="attribute" format="ascii">
1
1
1
1
1
1
1
1
1
1
1
1
1
1
1
1
1
1
1
1
1
1
1
1
1
1
1
1
1
1
1
1
1
1
1
1
1
1
1
1
1
1
1
1
1
1
1
1
1
1
1
1
1
1
1
1
1
1
1
1
1
1
1
1
1
1
1
1
1
1
1
1
1
1
1
1
1
1
1
1
1
1
1
1
1
1
1
1
1
1
1
1
1
1
1
1
1
1
1
1
1
1
1
1
1
1
1
1
1
1
1
1
1
1
1
1
1
1
1
1
1
1
1
1
1
1
1
1
1
1
1
1
1
1
1
1
1
1
1
1
1
1
1
1
1
1
1
1
1
1
1
1
1
1
1
1
1
1
1
1
1
1
1
1
1
1
1
1
1
1
1
1
1
1
1
1
1
1
1
1
1
1
1
1
1
1
1
1
1
1
1
1
1
1
1
1
1
1
1
1
1
1
1
1
1
1
1
1
1
1
1
1
1
1
1
1
1
1
1
1
1
1
1
1
1
1
1
1
1
1
1
1
1
1
1
1
1
1
1
1
1
1
1
1
1
1
1
1
1
1
1
1
1
1
1
1
2
2
2
2
2
2
2
2
2
2
2
2
2
2
2
2
2
2
2
2
2
2
2
2
2
2
2
2
2
2
2
2
2
2
2
2
2
2
2
2
2
2
2
2
2
2
2
2
2
2
2
2
2
2
2
2
2
2
2
2
2
2
2
2
2
2
2
2
2
2
2
2
2
2
2
2
2
2
2
2
2
2
2
2
2
2
2
2
2
2
2
2
2
2
2
2
2
2
2
2
2
2
2
2
2
2
2
2
2
2
2
2
2
2
2
2
2
2
2
2
2
2
2
2
2
2
2
2
2
2
2
2
2
2
2
2
2
2
2
2
2
2
2
2
2
2
2
2
2
2
2
2
2
2
2
2
2
2
2
2
2
2
2
2
2
2
2
2
2
2
2
2
2
2
2
2
2
2
2
2
2
2
2
2
2
2
2
2
2
2
2
2
2
2
2
2
2
2
2
2
2
2
2
2
2
2
2
2
2
2
2
2
2
2
2
2
2
2
2
2
2
2
2
2
2
2
2
2
2
2
2
2
2
2
2
2
2
2
2
2
2
2
2
2
2
2
2
2
2
2
2
2
2
2
2
2
</DataArray>
</CellData>
<PointData >
<DataArray type="Float64" Name="Pressure" NumberOfComponents="1" format="ascii" >
-5.09208e-05
-1.46498e-08
-8.33254e-05
-2.42503e-08
-1.46498e-08
1.82602e-13
-2.42503e-08
3.16206e-13
-2.42503e-08
3.16206e-13
-1.62802e-08
2.14725e-13
-8.33254e-05
-2.42503e-08
-5.55504e-05
-1.62802e-08
1.82602e-13
-1.46402e-18
3.16206e-13
-2.61365e-18
-1.46402e-18
1.18752e-23
-2.61365e-18
2.19788e-23
-2.61365e-18
2.19788e-23
-1.81975e-18
1.5717e-23
3.16206e-13
-2.61365e-18
2.14725e-13
-1.81975e-18
2.14725e-13
-1.81975e-18
1.10036e-13
-9.29859e-19
-1.81975e-18
1.5717e-23
-9.29859e-19
8.03954e-24
-9.29859e-19
8.03954e-24
-3.07589e-20
2.54914e-25
1.10036e-13
-9.29859e-19
3.87544e-15
-3.07589e-20
-5.55504e-05
-1.62802e-08
-2.77754e-05
-8.267e-09
-1.62802e-08
2.14725e-13
-8.267e-09
1.10036e-13
-8.267e-09
1.10036e-13
-1.83073e-10
3.87544e-15
-2.77754e-05
-8.267e-09
-2.25307e-10
-1.83073e-10
1.18752e-23
-4.95142e-29
2.19788e-23
-9.49695e-29
-4.95142e-29
3.52194e-34
-9.49695e-29
6.7932e-34
-9.49695e-29
6.7932e-34
-7.03436e-29
5.10399e-34
2.19788e-23
-9.49695e-29
1.5717e-23
-7.03436e-29
3.52194e-34
-6.03034e-40
6.7932e-34
-1.28179e-39
-6.03034e-40
6.31816e-45
-1.28179e-39
1.23699e-44
-1.28179e-39
1.23699e-44
-1.03592e-39
9.57853e-45
6.7932e-34
-1.28179e-39
5.10399e-34
-1.03592e-39
5.10399e-34
-1.03592e-39
2.65341e-34
-5.46171e-40
-1.03592e-39
9.57853e-45
-5.46171e-40
5.08659e-45
-5.46171e-40
5.08659e-45
-1.57344e-41
1.29499e-46
2.65341e-34
-5.46171e-40
7.60855e-36
-1.57344e-41
1.5717e-23
-7.03436e-29
8.03954e-24
-3.62028e-29
-7.03436e-29
5.10399e-34
-3.62028e-29
2.65341e-34
-3.62028e-29
2.65341e-34
-1.10508e-30
7.60855e-36
8.03954e-24
-3.62028e-29
2.54914e-25
-1.10508e-30
2.54914e-25
-1.10508e-30
-7.63822e-24
3.44804e-29
-1.10508e-30
7.60855e-36
3.44804e-29
-2.53733e-34
3.44804e-29
-2.53733e-34
7.00915e-29
-5.09049e-34
-7.63822e-24
3.44804e-29
-1.56431e-23
7.00915e-29
7.60855e-36
-1.57344e-41
-2.53733e-34
5.22332e-40
-1.57344e-41
1.29499e-46
5.22332e-40
-4.8946e-45
5.22332e-40
-4.8946e-45
1.03313e-39
-9.56302e-45
-2.53733e-34
5.22332e-40
-5.09049e-34
1.03313e-39
-5.09049e-34
1.03313e-39
-6.90158e-34
1.3013e-39
1.03313e-39
-9.56302e-45
1.3013e-39
-1.25429e-44
1.3013e-39
-1.25429e-44
6.16187e-40
-6.44045e-45
-6.90158e-34
1.3013e-39
-3.60119e-34
6.16187e-40
-1.56431e-23
7.00915e-29
-2.23704e-23
9.65853e-29
7.00915e-29
-5.09049e-34
9.65853e-29
-6.90158e-34
9.65853e-29
-6.90158e-34
5.07153e-29
-3.60119e-34
-2.23704e-23
9.65853e-29
-1.21873e-23
5.07153e-29
-2.25307e-10
-1.83073e-10
2.7775e-05
7.97154e-09
-1.83073e-10
3.87544e-15
7.97154e-09
-1.03795e-13
7.97154e-09
-1.03795e-13
1.61968e-08
-2.1301e-13
2.7775e-05
7.97154e-09
5.55503e-05
1.61968e-08
3.87544e-15
-3.07589e-20
-1.03795e-13
8.80822e-19
-3.07589e-20
2.54914e-25
8.80822e-19
-7.63822e-24
8.80822e-19
-7.63822e-24
1.80835e-18
-1.56431e-23
-1.03795e-13
8.80822e-19
-2.1301e-13
1.80835e-18
-2.1301e-13
1.80835e-18
-3.22051e-13
2.66225e-18
1.80835e-18
-1.56431e-23
2.66225e-18
-2.23704e-23
2.66225e-18
-2.23704e-23
1.5054e-18
-1.21873e-23
-3.22051e-13
2.66225e-18
-1.88588e-13
1.5054e-18
5.55503e-05
1.61968e-08
8.33257e-05
2.45232e-08
1.61968e-08
-2.1301e-13
2.45232e-08
-3.22051e-13
2.45232e-08
-3.22051e-13
1.49389e-08
-1.88588e-13
8.33257e-05
2.45232e-08
5.09212e-05
1.49389e-08
6.31816e-45
1.70988e-51
1.23699e-44
5.63354e-52
1.70988e-51
8.10289e-56
5.63354e-52
1.57242e-55
5.63354e-52
1.57242e-55
-1.18622e-51
1.22719e-55
1.23699e-44
5.63354e-52
9.57853e-45
-1.18622e-51
8.10289e-56
1.30815e-61
1.57242e-55
2.21296e-61
1.30815e-61
7.78186e-67
2.21296e-61
1.48299e-66
2.21296e-61
1.48299e-66
1.52679e-61
1.15115e-66
1.57242e-55
2.21296e-61
1.22719e-55
1.52679e-61
1.22719e-55
1.52679e-61
6.61384e-56
7.95733e-62
1.52679e-61
1.15115e-66
7.95733e-62
6.24177e-67
7.95733e-62
6.24177e-67
1.33684e-63
1.1874e-68
6.61384e-56
7.95733e-62
1.46533e-57
1.33684e-63
9.57853e-45
-1.18622e-51
5.08659e-45
-7.97419e-52
-1.18622e-51
1.22719e-55
-7.97419e-52
6.61384e-56
-7.97419e-52
6.61384e-56
-4.40513e-53
1.46533e-57
5.08659e-45
-7.97419e-52
1.29499e-46
-4.40513e-53
7.78186e-67
1.65476e-72
1.48299e-66
2.96593e-72
1.65476e-72
5.36265e-78
2.96593e-72
1.00726e-77
2.96593e-72
1.00726e-77
2.17883e-72
7.76494e-78
1.48299e-66
2.96593e-72
1.15115e-66
2.17883e-72
5.36265e-78
1.10465e-83
1.00726e-77
2.01689e-83
1.10465e-83
2.4859e-89
2.01689e-83
4.63078e-89
2.01689e-83
4.63078e-89
1.51502e-83
3.55616e-89
1.00726e-77
2.01689e-83
7.76494e-78
1.51502e-83
7.76494e-78
1.51502e-83
4.21609e-78
8.1451e-84
1.51502e-83
3.55616e-89
8.1451e-84
1.93127e-89
8.1451e-84
1.93127e-89
1.17139e-85
2.70559e-91
4.21609e-78
8.1451e-84
6.86899e-80
1.17139e-85
1.15115e-66
2.17883e-72
6.24177e-67
1.16011e-72
2.17883e-72
7.76494e-78
1.16011e-72
4.21609e-78
1.16011e-72
4.21609e-78
1.86383e-74
6.86899e-80
6.24177e-67
1.16011e-72
1.1874e-68
1.86383e-74
1.1874e-68
1.86383e-74
-6.07086e-67
-1.13374e-72
1.86383e-74
6.86899e-80
-1.13374e-72
-4.11791e-78
-1.13374e-72
-4.11791e-78
-2.17955e-72
-7.76223e-78
-6.07086e-67
-1.13374e-72
-1.15043e-66
-2.17955e-72
6.86899e-80
1.17139e-85
-4.11791e-78
-7.97943e-84
1.17139e-85
2.70559e-91
-7.97943e-84
-1.89278e-89
-7.97943e-84
-1.89278e-89
-1.51525e-83
-3.55552e-89
-4.11791e-78
-7.97943e-84
-7.76223e-78
-1.51525e-83
-7.76223e-78
-1.51525e-83
-1.01653e-77
-2.03436e-83
-1.51525e-83
-3.55552e-89
-2.03436e-83
-4.66797e-89
-2.03436e-83
-4.66797e-89
-1.1171e-83
-2.51228e-89
-1.01653e-77
-2.03436e-83
-5.4283e-78
-1.1171e-83
-1.15043e-66
-2.17955e-72
-1.49866e-66
-2.99535e-72
-2.17955e-72
-7.76223e-78
-2.99535e-72
-1.01653e-77
-2.99535e-72
-1.01653e-77
-1.67598e-72
-5.4283e-78
-1.49866e-66
-2.99535e-72
-7.8924e-67
-1.67598e-72
1.29499e-46
-4.40513e-53
-4.8946e-45
7.28549e-52
-4.40513e-53
1.46533e-57
7.28549e-52
-6.40056e-56
7.28549e-52
-6.40056e-56
1.16451e-51
-1.22592e-55
-4.8946e-45
7.28549e-52
-9.56302e-45
1.16451e-51
1.46533e-57
1.33684e-63
-6.40056e-56
-7.7691e-62
1.33684e-63
1.1874e-68
-7.7691e-62
-6.07086e-67
-7.7691e-62
-6.07086e-67
-1.52821e-61
-1.15043e-66
-6.40056e-56
-7.7691e-62
-1.22592e-55
-1.52821e-61
-1.22592e-55
-1.52821e-61
-1.59154e-55
-2.23794e-61
-1.52821e-61
-1.15043e-66
-2.23794e-61
-1.49866e-66
-2.23794e-61
-1.49866e-66
-1.3269e-61
-7.8924e-67
-1.59154e-55
-2.23794e-61
-8.23721e-56
-1.3269e-61
-9.56302e-45
1.16451e-51
-1.25429e-44
-5.65923e-52
1.16451e-51
-1.22592e-55
-5.65923e-52
-1.59154e-55
-5.65923e-52
-1.59154e-55
-1.7265e-51
-8.23721e-56
-1.25429e-44
-5.65923e-52
-6.44045e-45
-1.7265e-51
2.4859e-89
4.34611e-95
4.63078e-89
7.99395e-95
4.34611e-95
7.18871e-101
7.99395e-95
1.33364e-100
7.99395e-95
1.33364e-100
6.06864e-95
1.02292e-100
4.63078e-89
7.99395e-95
3.55616e-89
6.06864e-95
7.18871e-101
9.69031e-107
1.33364e-100
1.78775e-106
9.69031e-107
1.10518e-112
1.78775e-106
2.04626e-112
1.78775e-106
2.04626e-112
1.36475e-106
1.56972e-112
1.33364e-100
1.78775e-106
1.02292e-100
1.36475e-106
1.02292e-100
1.36475e-106
5.55645e-101
7.39718e-107
1.36475e-106
1.56972e-112
7.39718e-107
8.52931e-113
7.39718e-107
8.52931e-113
8.22615e-109
8.96194e-115
5.55645e-101
7.39718e-107
6.72788e-103
8.22615e-109
3.55616e-89
6.06864e-95
1.93127e-89
3.2798e-95
6.06864e-95
1.02292e-100
3.2798e-95
5.55645e-101
3.2798e-95
5.55645e-101
4.1594e-97
6.72788e-103
1.93127e-89
3.2798e-95
2.70559e-91
4.1594e-97
1.10518e-112
9.08208e-119
2.04626e-112
1.67745e-118
9.08208e-119
3.0702e-125
1.67745e-118
5.67872e-125
1.67745e-118
5.67872e-125
1.28454e-118
4.35894e-125
2.04626e-112
1.67745e-118
1.56972e-112
1.28454e-118
3.0702e-125
-6.07459e-131
5.67872e-125
-1.12233e-130
-6.07459e-131
-1.46759e-136
-1.12233e-130
-2.71286e-136
-1.12233e-130
-2.71286e-136
-8.61046e-131
-2.08383e-136
5.67872e-125
-1.12233e-130
4.35894e-125
-8.61046e-131
4.35894e-125
-8.61046e-131
2.36919e-125
-4.67838e-131
-8.61046e-131
-2.08383e-136
-4.67838e-131
-1.13285e-136
-4.67838e-131
-1.13285e-136
-3.97807e-133
-9.02821e-139
2.36919e-125
-4.67838e-131
2.16612e-127
-3.97807e-133
1.56972e-112
1.28454e-118
8.52931e-113
6.9735e-119
1.28454e-118
4.35894e-125
6.9735e-119
2.36919e-125
6.9735e-119
2.36919e-125
6.78432e-121
2.16612e-127
8.52931e-113
6.9735e-119
8.96194e-115
6.78432e-121
8.96194e-115
6.78432e-121
-8.40233e-113
-6.87757e-119
6.78432e-121
2.16612e-127
-6.87757e-119
-2.33853e-125
-6.87757e-119
-2.33853e-125
-1.28456e-118
-4.35882e-125
-8.40233e-113
-6.87757e-119
-1.56965e-112
-1.28456e-118
2.16612e-127
-3.97807e-133
-2.33853e-125
4.62211e-131
-3.97807e-133
-9.02821e-139
4.62211e-131
1.12007e-136
4.62211e-131
1.12007e-136
8.61044e-131
2.08378e-136
-2.33853e-125
4.62211e-131
-4.35882e-125
8.61044e-131
-4.35882e-125
8.61044e-131
-5.70906e-125
1.12793e-130
8.61044e-131
2.08378e-136
1.12793e-130
2.7255e-136
1.12793e-130
2.7255e-136
6.1143e-131
1.47655e-136
-5.70906e-125
1.12793e-130
-3.09169e-125
6.1143e-131
-1.56965e-112
-1.28456e-118
-2.05879e-112
-1.68707e-118
-1.28456e-118
-4.35882e-125
-1.68707e-118
-5.70906e-125
-1.68707e-118
-5.70906e-125
-9.15016e-119
-3.09169e-125
-2.05879e-112
-1.68707e-118
-1.11406e-112
-9.15016e-119
2.70559e-91
4.1594e-97
-1.89278e-89
-3.221e-95
4.1594e-97
6.72788e-103
-3.221e-95
-5.46098e-101
-3.221e-95
-5.46098e-101
-6.06912e-95
-1.02283e-100
-1.89278e-89
-3.221e-95
-3.55552e-89
-6.06912e-95
6.72788e-103
8.22615e-109
-5.46098e-101
-7.28088e-107
8.22615e-109
8.96194e-115
-7.28088e-107
-8.40233e-113
-7.28088e-107
-8.40233e-113
-1.3648e-106
-1.56965e-112
-5.46098e-101
-7.28088e-107
-1.02283e-100
-1.3648e-106
-1.02283e-100
-1.3648e-106
-1.34299e-100
-1.79951e-106
-1.3648e-106
-1.56965e-112
-1.79951e-106
-2.05879e-112
-1.79951e-106
-2.05879e-112
-9.77361e-107
-1.11406e-112
-1.34299e-100
-1.79951e-106
-7.25503e-101
-9.77361e-107
-3.55552e-89
-6.06912e-95
-4.66797e-89
-8.05429e-95
-6.06912e-95
-1.02283e-100
-8.05429e-95
-1.34299e-100
-8.05429e-95
-1.34299e-100
-4.38892e-95
-7.25503e-101
-4.66797e-89
-8.05429e-95
-2.51228e-89
-4.38892e-95
-1.46759e-136
-1.77095e-142
-2.71286e-136
-3.27181e-142
-1.77095e-142
-1.21073e-148
-3.27181e-142
-2.23708e-148
-3.27181e-142
-2.23708e-148
-2.51308e-142
-1.71945e-148
-2.71286e-136
-3.27181e-142
-2.08383e-136
-2.51308e-142
-1.21073e-148
3.76403e-156
-2.23708e-148
6.95273e-156
3.76403e-156
1.28678e-160
6.95273e-156
2.37676e-160
6.95273e-156
2.37676e-160
5.34465e-156
1.82775e-160
-2.23708e-148
6.95273e-156
-1.71945e-148
5.34465e-156
-1.71945e-148
5.34465e-156
-9.34871e-149
2.90573e-156
5.34465e-156
1.82775e-160
2.90573e-156
9.93791e-161
2.90573e-156
9.93791e-161
1.88648e-158
6.03706e-163
-9.34871e-149
2.90573e-156
-6.50208e-151
1.88648e-158
-2.08383e-136
-2.51308e-142
-1.13285e-136
-1.36603e-142
-2.51308e-142
-1.71945e-148
-1.36603e-142
-9.34871e-149
-1.36603e-142
-9.34871e-149
-1.01499e-144
-6.50208e-151
-1.13285e-136
-1.36603e-142
-9.02821e-139
-1.01499e-144
1.28678e-160
1.74788e-166
2.37676e-160
3.22776e-166
1.74788e-166
1.11593e-172
3.22776e-166
2.06055e-172
3.22776e-166
2.06055e-172
2.48256e-166
1.58523e-172
2.37676e-160
3.22776e-166
1.82775e-160
2.48256e-166
1.11593e-172
-1.46318e-179
2.06055e-172
-2.70132e-179
-1.46318e-179
-1.12693e-184
-2.70132e-179
-2.0803e-184
-2.70132e-179
-2.0803e-184
-2.0785e-179
-1.60094e-184
2.06055e-172
-2.70132e-179
1.58523e-172
-2.0785e-179
1.58523e-172
-2.0785e-179
8.61905e-173
-1.13005e-179
-2.0785e-179
-1.60094e-184
-1.13005e-179
-8.70389e-185
-1.13005e-179
-8.70389e-185
-5.60883e-182
-4.04121e-187
8.61905e-173
-1.13005e-179
4.57623e-175
-5.60883e-182
1.82775e-160
2.48256e-166
9.93791e-161
1.34977e-166
2.48256e-166
1.58523e-172
1.34977e-166
8.61905e-173
1.34977e-166
8.61905e-173
7.66149e-169
4.57623e-175
9.93791e-161
1.34977e-166
6.03706e-163
7.66149e-169
6.03706e-163
7.66149e-169
-9.85242e-161
-1.33892e-166
7.66149e-169
4.57623e-175
-1.33892e-166
-8.55422e-173
-1.33892e-166
-8.55422e-173
-2.4825e-166
-1.58519e-172
-9.85242e-161
-1.33892e-166
-1.82771e-160
-2.4825e-166
4.57623e-175
-5.60883e-182
-8.55422e-173
1.1221e-179
-5.60883e-182
-4.04121e-187
1.1221e-179
8.6466e-185
1.1221e-179
8.6466e-185
2.07843e-179
1.60088e-184
-8.55422e-173
1.1221e-179
-1.58519e-172
2.07843e-179
-1.58519e-172
2.07843e-179
-2.06692e-172
2.70912e-179
2.07843e-179
1.60088e-184
2.70912e-179
2.0859e-184
2.70912e-179
2.0859e-184
1.4687e-179
1.1309e-184
-2.06692e-172
2.70912e-179
-1.12044e-172
1.4687e-179
-1.82771e-160
-2.4825e-166
-2.38519e-160
-3.23845e-166
-2.4825e-166
-1.58519e-172
-3.23845e-166
-2.06692e-172
-3.23845e-166
-2.06692e-172
-1.75545e-166
-1.12044e-172
-2.38519e-160
-3.23845e-166
-1.29275e-160
-1.75545e-166
-9.02821e-139
-1.01499e-144
1.12007e-136
1.35167e-142
-1.01499e-144
-6.50208e-151
1.35167e-142
9.25667e-149
1.35167e-142
9.25667e-149
2.51305e-142
1.71941e-148
1.12007e-136
1.35167e-142
2.08378e-136
2.51305e-142
-6.50208e-151
1.88648e-158
9.25667e-149
-2.87903e-156
1.88648e-158
6.03706e-163
-2.87903e-156
-9.85242e-161
-2.87903e-156
-9.85242e-161
-5.34455e-156
-1.82771e-160
9.25667e-149
-2.87903e-156
1.71941e-148
-5.34455e-156
1.71941e-148
-5.34455e-156
2.24618e-148
-6.97913e-156
-5.34455e-156
-1.82771e-160
-6.97913e-156
-2.38519e-160
-6.97913e-156
-2.38519e-160
-3.78272e-156
-1.29275e-160
2.24618e-148
-6.97913e-156
1.21717e-148
-3.78272e-156
2.08378e-136
2.51305e-142
2.7255e-136
3.28607e-142
2.51305e-142
1.71941e-148
3.28607e-142
2.24618e-148
3.28607e-142
2.24618e-148
1.78104e-142
1.21717e-148
2.7255e-136
3.28607e-142
1.47655e-136
1.78104e-142
-1.12693e-184
-1.17878e-190
-2.0803e-184
-2.17569e-190
-1.17878e-190
-4.16191e-197
-2.17569e-190
-7.68083e-197
-2.17569e-190
-7.68083e-197
-1.67456e-190
-5.91243e-197
-2.0803e-184
-2.17569e-190
-1.60094e-184
-1.67456e-190
-4.16191e-197
4.47401e-203
-7.68083e-197
8.25583e-203
4.47401e-203
7.52342e-209
8.25583e-203
1.38814e-208
8.25583e-203
1.38814e-208
6.35568e-203
1.06875e-208
-7.68083e-197
8.25583e-203
-5.91243e-197
6.35568e-203
-5.91243e-197
6.35568e-203
-3.21416e-197
3.45495e-203
6.35568e-203
1.06875e-208
3.45495e-203
5.80944e-209
3.45495e-203
5.80944e-209
1.31297e-205
2.06585e-211
-3.21416e-197
3.45495e-203
-1.30571e-199
1.31297e-205
-1.60094e-184
-1.67456e-190
-8.70389e-185
-9.10371e-191
-1.67456e-190
-5.91243e-197
-9.10371e-191
-3.21416e-197
-9.10371e-191
-3.21416e-197
-3.95301e-193
-1.30571e-199
-8.70389e-185
-9.10371e-191
-4.04121e-187
-3.95301e-193
7.52342e-209
4.17333e-215
1.38814e-208
7.69932e-215
4.17333e-215
-1.15117e-221
7.69932e-215
-2.12356e-221
7.69932e-215
-2.12356e-221
5.92831e-215
-1.63523e-221
1.38814e-208
7.69932e-215
1.06875e-208
5.92831e-215
-1.15117e-221
-3.70371e-227
-2.12356e-221
-6.8316e-227
-3.70371e-227
-2.44852e-233
-6.8316e-227
-4.51596e-233
-6.8316e-227
-4.51596e-233
-5.26094e-227
-3.4779e-233
-2.12356e-221
-6.8316e-227
-1.63523e-221
-5.26094e-227
-1.63523e-221
-5.26094e-227
-8.88777e-222
-2.85928e-227
-5.26094e-227
-3.4779e-233
-2.85928e-227
-1.89012e-233
-2.85928e-227
-1.89012e-233
-8.33546e-230
-5.15859e-236
-8.88777e-222
-2.85928e-227
-2.76801e-224
-8.33546e-230
1.06875e-208
5.92831e-215
5.80944e-209
3.22232e-215
5.92831e-215
-1.63523e-221
3.22232e-215
-8.88777e-222
3.22232e-215
-8.88777e-222
1.07226e-217
-2.76801e-224
5.80944e-209
3.22232e-215
2.06585e-211
1.07226e-217
2.06585e-211
1.07226e-217
-5.78011e-209
-3.20708e-215
1.07226e-217
-2.76801e-224
-3.20708e-215
8.84843e-222
-3.20708e-215
8.84843e-222
-5.92807e-215
1.63516e-221
-5.78011e-209
-3.20708e-215
-1.06871e-208
-5.92807e-215
-2.76801e-224
-8.33546e-230
8.84843e-222
2.84743e-227
-8.33546e-230
-5.15859e-236
2.84743e-227
1.88278e-233
2.84743e-227
1.88278e-233
5.26071e-227
3.47774e-233
8.84843e-222
2.84743e-227
1.63516e-221
5.26071e-227
1.63516e-221
5.26071e-227
2.12735e-221
6.84297e-227
5.26071e-227
3.47774e-233
6.84297e-227
4.52298e-233
6.84297e-227
4.52298e-233
3.71176e-227
2.45349e-233
2.12735e-221
6.84297e-227
1.15385e-221
3.71176e-227
-1.06871e-208
-5.92807e-215
-1.39098e-208
-7.71403e-215
-5.92807e-215
1.63516e-221
-7.71403e-215
2.12735e-221
-7.71403e-215
2.12735e-221
-4.18374e-215
1.15385e-221
-1.39098e-208
-7.71403e-215
-7.54353e-209
-4.18374e-215
-4.04121e-187
-3.95301e-193
8.6466e-185
9.04765e-191
-3.95301e-193
-1.30571e-199
9.04765e-191
3.19564e-197
9.04765e-191
3.19564e-197
1.6745e-190
5.91221e-197
8.6466e-185
9.04765e-191
1.60088e-184
1.6745e-190
-1.30571e-199
1.31297e-205
3.19564e-197
-3.43632e-203
1.31297e-205
2.06585e-211
-3.43632e-203
-5.78011e-209
-3.43632e-203
-5.78011e-209
-6.35544e-203
-1.06871e-208
3.19564e-197
-3.43632e-203
5.91221e-197
-6.35544e-203
5.91221e-197
-6.35544e-203
7.69887e-197
-8.27393e-203
-6.35544e-203
-1.06871e-208
-8.27393e-203
-1.39098e-208
-8.27393e-203
-1.39098e-208
-4.48682e-203
-7.54353e-209
7.69887e-197
-8.27393e-203
4.17468e-197
-4.48682e-203
1.60088e-184
1.6745e-190
2.0859e-184
2.18117e-190
1.6745e-190
5.91221e-197
2.18117e-190
7.69887e-197
2.18117e-190
7.69887e-197
1.18265e-190
4.17468e-197
2.0859e-184
2.18117e-190
1.1309e-184
1.18265e-190
-2.44852e-233
1.99647e-240
-4.51596e-233
3.68191e-240
1.99647e-240
1.56111e-245
3.68191e-240
2.87878e-245
3.68191e-240
2.87878e-245
2.83573e-240
2.21728e-245
-4.51596e-233
3.68191e-240
-3.4779e-233
2.83573e-240
1.56111e-245
1.06828e-251
2.87878e-245
1.96983e-251
1.06828e-251
-5.70721e-259
1.96983e-251
-1.05229e-258
1.96983e-251
-1.05229e-258
1.51725e-251
-8.10563e-259
2.87878e-245
1.96983e-251
2.21728e-245
1.51725e-251
2.21728e-245
1.51725e-251
1.2049e-245
8.24462e-252
1.51725e-251
-8.10563e-259
8.24462e-252
-4.40434e-259
8.24462e-252
-4.40434e-259
1.84801e-254
-9.2477e-262
1.2049e-245
8.24462e-252
2.88347e-248
1.84801e-254
-3.4779e-233
2.83573e-240
-1.89012e-233
1.54105e-240
2.83573e-240
2.21728e-245
1.54105e-240
1.2049e-245
1.54105e-240
1.2049e-245
3.93786e-243
2.88347e-248
-1.89012e-233
1.54105e-240
-5.15859e-236
3.93786e-243
-5.70721e-259
-5.88761e-264
-1.05229e-258
-1.08548e-263
-5.88761e-264
-3.66007e-270
-1.08548e-263
-6.74753e-270
-1.08548e-263
-6.74753e-270
-8.36154e-264
-5.19785e-270
-1.05229e-258
-1.08548e-263
-8.10563e-259
-8.36154e-264
-3.66007e-270
4.60517e-277
-6.74753e-270
8.48937e-277
4.60517e-277
1.97512e-282
8.48937e-277
3.64081e-282
8.48937e-277
3.64081e-282
6.53987e-277
2.80481e-282
-6.74753e-270
8.48937e-277
-5.19785e-270
6.53987e-277
-5.19785e-270
6.53987e-277
-2.82412e-270
3.55314e-277
6.53987e-277
2.80481e-282
3.55314e-277
1.52381e-282
3.55314e-277
1.52381e-282
6.14085e-280
2.46923e-285
-2.82412e-270
3.55314e-277
-5.20725e-273
6.14085e-280
-8.10563e-259
-8.36154e-264
-4.40434e-259
-4.5432e-264
-8.36154e-264
-5.19785e-270
-4.5432e-264
-2.82412e-270
-4.5432e-264
-2.82412e-270
-8.93863e-267
-5.20725e-273
-4.40434e-259
-4.5432e-264
-9.2477e-262
-8.93863e-267
-9.2477e-262
-8.93863e-267
4.39114e-259
4.53044e-264
-8.93863e-267
-5.20725e-273
4.53044e-264
2.81667e-270
4.53044e-264
2.81667e-270
8.36112e-264
5.19758e-270
4.39114e-259
4.53044e-264
8.10523e-259
8.36112e-264
-5.20725e-273
6.14085e-280
2.81667e-270
-3.54435e-277
6.14085e-280
2.46923e-285
-3.54435e-277
-1.52027e-282
-3.54435e-277
-1.52027e-282
-6.53952e-277
-2.80466e-282
2.81667e-270
-3.54435e-277
5.19758e-270
-6.53952e-277
5.19758e-270
-6.53952e-277
6.75444e-270