<VTKFile type="UnstructuredGrid" version="0.1" byte_order="LittleEndian">
<UnstructuredGrid>
<Piece NumberOfPoints="2048" NumberOfCells="512">
<Points>
<DataArray type="Float64" NumberOfComponents="3" format="ascii">
0 0 0
0.125 0 0
0 0.125 0
0.125 0.125 0
0.125 0 0
0.25 0 0
0.125 0.125 0
0.25 0.125 0
0.125 0.125 0
0.25 0.125 0
0.125 0.25 0
0.25 0.25 0
0 0.125 0
0.125 0.125 0
0 0.25 0
0.125 0.25 0
0.25 0 0
0.375 0 0
0.25 0.125 0
0.375 0.125 0
0.375 0 0
0.5 0 0
0.375 0.125 0
0.5 0.125 0
0.375 0.125 0
0.5 0.125 0
0.375 0.25 0
0.5 0.25 0
0.25 0.125 0
0.375 0.125 0
0.25 0.25 0
0.375 0.25 0
0.25 0.25 0
0.375 0.25 0
0.25 0.375 0
0.375 0.375 0
0.375 0.25 0
0.5 0.25 0
0.375 0.375 0
0.5 0.375 0
0.375 0.375 0
0.5 0.375 0
0.375 0.5 0
0.5 0.5 0
0.25 0.375 0
0.375 0.375 0
0.25 0.5 0
0.375 0.5 0
0 0.25 0
0.125 0.25 0
0 0.375 0
0.125 0.375 0
0.125 0.25 0
0.25 0.25 0
0.125 0.375 0
0.25 0.375 0
0.125 0.375 0
0.25 0.375 0
0.125 0.5 0
0.25 0.5 0
0 0.375 0
0.125 0.375 0
0 0.5 0
0.125 0.5 0
0.5 0 0
0.625 0 0
0.5 0.125 0
0.625 0.125 0
0.625 0 0
0.75 0 0
0.625 0.125 0
0.75 0.125 0
0.625 0.125 0
0.75 0.125 0
0.625 0.25 0
0.75 0.25 0
0.5 0.125 0
0.625 0.125 0
0.5 0.25 0
0.625 0.25 0
0.75 0 0
0.875 0 0
0.75 0.125 0
0.875 0.125 0
0.875 0 0
1 0 0
0.875 0.125 0
1 0.125 0
0.875 0.125 0
1 0.125 0
0.875 0.25 0
1 0.25 0
0.75 0.125 0
0.875 0.125 0
0.75 0.25 0
0.875 0.25 0
0.75 0.25 0
0.875 0.25 0
0.75 0.375 0
0.875 0.375 0
0.875 0.25 0
1 0.25 0
0.875 0.375 0
1 0.375 0
0.875 0.375 0
1 0.375 0
0.875 0.5 0
1 0.5 0
0.75 0.375 0
0.875 0.375 0
0.75 0.5 0
0.875 0.5 0
0.5 0.25 0
0.625 0.25 0
0.5 0.375 0
0.625 0.375 0
0.625 0.25 0
0.75 0.25 0
0.625 0.375 0
0.75 0.375 0
0.625 0.375 0
0.75 0.375 0
0.625 0.5 0
0.75 0.5 0
0.5 0.375 0
0.625 0.375 0
0.5 0.5 0
0.625 0.5 0
0.5 0.5 0
0.625 0.5 0
0.5 0.625 0
0.625 0.625 0
0.625 0.5 0
0.75 0.5 0
0.625 0.625 0
0.75 0.625 0
0.625 0.625 0
0.75 0.625 0
0.625 0.75 0
0.75 0.75 0
0.5 0.625 0
0.625 0.625 0
0.5 0.75 0
0.625 0.75 0
0.75 0.5 0
0.875 0.5 0
0.75 0.625 0
0.875 0.625 0
0.875 0.5 0
1 0.5 0
0.875 0.625 0
1 0.625 0
0.875 0.625 0
1 0.625 0
0.875 0.75 0
1 0.75 0
0.75 0.625 0
0.875 0.625 0
0.75 0.75 0
0.875 0.75 0
0.75 0.75 0
0.875 0.75 0
0.75 0.875 0
0.875 0.875 0
0.875 0.75 0
1 0.75 0
0.875 0.875 0
1 0.875 0
0.875 0.875 0
1 0.875 0
0.875 1 0
1 1 0
0.75 0.875 0
0.875 0.875 0
0.75 1 0
0.875 1 0
0.5 0.75 0
0.625 0.75 0
0.5 0.875 0
0.625 0.875 0
0.625 0.75 0
0.75 0.75 0
0.625 0.875 0
0.75 0.875 0
0.625 0.875 0
0.75 0.875 0
0.625 1 0
0.75 1 0
0.5 0.875 0
0.625 0.875 0
0.5 1 0
0.625 1 0
0 0.5 0
0.125 0.5 0
0 0.625 0
0.125 0.625 0
0.125 0.5 0
0.25 0.5 0
0.125 0.625 0
0.25 0.625 0
0.125 0.625 0
0.25 0.625 0
0.125 0.75 0
0.25 0.75 0
0 0.625 0
0.125 0.625 0
0 0.75 0
0.125 0.75 0
0.25 0.5 0
0.375 0.5 0
0.25 0.625 0
0.375 0.625 0
0.375 0.5 0
0.5 0.5 0
0.375 0.625 0
0.5 0.625 0
0.375 0.625 0
0.5 0.625 0
0.375 0.75 0
0.5 0.75 0
0.25 0.625 0
0.375 0.625 0
0.25 0.75 0
0.375 0.75 0
0.25 0.75 0
0.375 0.75 0
0.25 0.875 0
0.375 0.875 0
0.375 0.75 0
0.5 0.75 0
0.375 0.875 0
0.5 0.875 0
0.375 0.875 0
0.5 0.875 0
0.375 1 0
0.5 1 0
0.25 0.875 0
0.375 0.875 0
0.25 1 0
0.375 1 0
0 0.75 0
0.125 0.75 0
0 0.875 0
0.125 0.875 0
0.125 0.75 0
0.25 0.75 0
0.125 0.875 0
0.25 0.875 0
0.125 0.875 0
0.25 0.875 0
0.125 1 0
0.25 1 0
0 0.875 0
0.125 0.875 0
0 1 0
0.125 1 0
1 0 0
1.125 0 0
1 0.125 0
1.125 0.125 0
1.125 0 0
1.25 0 0
1.125 0.125 0
1.25 0.125 0
1.125 0.125 0
1.25 0.125 0
1.125 0.25 0
1.25 0.25 0
1 0.125 0
1.125 0.125 0
1 0.25 0
1.125 0.25 0
1.25 0 0
1.375 0 0
1.25 0.125 0
1.375 0.125 0
1.375 0 0
1.5 0 0
1.375 0.125 0
1.5 0.125 0
1.375 0.125 0
1.5 0.125 0
1.375 0.25 0
1.5 0.25 0
1.25 0.125 0
1.375 0.125 0
1.25 0.25 0
1.375 0.25 0
1.25 0.25 0
1.375 0.25 0
1.25 0.375 0
1.375 0.375 0
1.375 0.25 0
1.5 0.25 0
1.375 0.375 0
1.5 0.375 0
1.375 0.375 0
1.5 0.375 0
1.375 0.5 0
1.5 0.5 0
1.25 0.375 0
1.375 0.375 0
1.25 0.5 0
1.375 0.5 0
1 0.25 0
1.125 0.25 0
1 0.375 0
1.125 0.375 0
1.125 0.25 0
1.25 0.25 0
1.125 0.375 0
1.25 0.375 0
1.125 0.375 0
1.25 0.375 0
1.125 0.5 0
1.25 0.5 0
1 0.375 0
1.125 0.375 0
1 0.5 0
1.125 0.5 0
1.5 0 0
1.625 0 0
1.5 0.125 0
1.625 0.125 0
1.625 0 0
1.75 0 0
1.625 0.125 0
1.75 0.125 0
1.625 0.125 0
1.75 0.125 0
1.625 0.25 0
1.75 0.25 0
1.5 0.125 0
1.625 0.125 0
1.5 0.25 0
1.625 0.25 0
1.75 0 0
1.875 0 0
1.75 0.125 0
1.875 0.125 0
1.875 0 0
2 0 0
1.875 0.125 0
2 0.125 0
1.875 0.125 0
2 0.125 0
1.875 0.25 0
2 0.25 0
1.75 0.125 0
1.875 0.125 0
1.75 0.25 0
1.875 0.25 0
1.75 0.25 0
1.875 0.25 0
1.75 0.375 0
1.875 0.375 0
1.875 0.25 0
2 0.25 0
1.875 0.375 0
2 0.375 0
1.875 0.375 0
2 0.375 0
1.875 0.5 0
2 0.5 0
1.75 0.375 0
1.875 0.375 0
1.75 0.5 0
1.875 0.5 0
1.5 0.25 0
1.625 0.25 0
1.5 0.375 0
1.625 0.375 0
1.625 0.25 0
1.75 0.25 0
1.625 0.375 0
1.75 0.375 0
1.625 0.375 0
1.75 0.375 0
1.625 0.5 0
1.75 0.5 0
1.5 0.375 0
1.625 0.375 0
1.5 0.5 0
1.625 0.5 0
1.5 0.5 0
1.625 0.5 0
1.5 0.625 0
1.625 0.625 0
1.625 0.5 0
1.75 0.5 0
1.625 0.625 0
1.75 0.625 0
1.625 0.625 0
1.75 0.625 0
1.625 0.75 0
1.75 0.75 0
1.5 0.625 0
1.625 0.625 0
1.5 0.75 0
1.625 0.75 0
1.75 0.5 0
1.875 0.5 0
1.75 0.625 0
1.875 0.625 0
1.875 0.5 0
2 0.5 0
1.875 0.625 0
2 0.625 0
1.875 0.625 0
2 0.625 0
1.875 0.75 0
2 0.75 0
1.75 0.625 0
1.875 0.625 0
1.75 0.75 0
1.875 0.75 0
1.75 0.75 0
1.875 0.75 0
1.75 0.875 0
1.875 0.875 0
1.875 0.75 0
2 0.75 0
1.875 0.875 0
2 0.875 0
1.875 0.875 0
2 0.875 0
1.875 1 0
2 1 0
1.75 0.875 0
1.875 0.875 0
1.75 1 0
1.875 1 0
1.5 0.75 0
1.625 0.75 0
1.5 0.875 0
1.625 0.875 0
1.625 0.75 0
1.75 0.75 0
1.625 0.875 0
1.75 0.875 0
1.625 0.875 0
1.75 0.875 0
1.625 1 0
1.75 1 0
1.5 0.875 0
1.625 0.875 0
1.5 1 0
1.625 1 0
1 0.5 0
1.125 0.5 0
1 0.625 0
1.125 0.625 0
1.125 0.5 0
1.25 0.5 0
1.125 0.625 0
1.25 0.625 0
1.125 0.625 0
1.25 0.625 0
1.125 0.75 0
1.25 0.75 0
1 0.625 0
1.125 0.625 0
1 0.75 0
1.125 0.75 0
1.25 0.5 0
1.375 0.5 0
1.25 0.625 0
1.375 0.625 0
1.375 0.5 0
1.5 0.5 0
1.375 0.625 0
1.5 0.625 0
1.375 0.625 0
1.5 0.625 0
1.375 0.75 0
1.5 0.75 0
1.25 0.625 0
1.375 0.625 0
1.25 0.75 0
1.375 0.75 0
1.25 0.75 0
1.375 0.75 0
1.25 0.875 0
1.375 0.875 0
1.375 0.75 0
1.5 0.75 0
1.375 0.875 0
1.5 0.875 0
1.375 0.875 0
1.5 0.875 0
1.375 1 0
1.5 1 0
1.25 0.875 0
1.375 0.875 0
1.25 1 0
1.375 1 0
1 0.75 0
1.125 0.75 0
1 0.875 0
1.125 0.875 0
1.125 0.75 0
1.25 0.75 0
1.125 0.875 0
1.25 0.875 0
1.125 0.875 0
1.25 0.875 0
1.125 1 0
1.25 1 0
1 0.875 0
1.125 0.875 0
1 1 0
1.125 1 0
2 0 0
2.125 0 0
2 0.125 0
2.125 0.125 0
2.125 0 0
2.25 0 0
2.125 0.125 0
2.25 0.125 0
2.125 0.125 0
2.25 0.125 0
2.125 0.25 0
2.25 0.25 0
2 0.125 0
2.125 0.125 0
2 0.25 0
2.125 0.25 0
2.25 0 0
2.375 0 0
2.25 0.125 0
2.375 0.125 0
2.375 0 0
2.5 0 0
2.375 0.125 0
2.5 0.125 0
2.375 0.125 0
2.5 0.125 0
2.375 0.25 0
2.5 0.25 0
2.25 0.125 0
2.375 0.125 0
2.25 0.25 0
2.375 0.25 0
2.25 0.25 0
2.375 0.25 0
2.25 0.375 0
2.375 0.375 0
2.375 0.25 0
2.5 0.25 0
2.375 0.375 0
2.5 0.375 0
2.375 0.375 0
2.5 0.375 0
2.375 0.5 0
2.5 0.5 0
2.25 0.375 0
2.375 0.375 0
2.25 0.5 0
2.375 0.5 0
2 0.25 0
2.125 0.25 0
2 0.375 0
2.125 0.375 0
2.125 0.25 0
2.25 0.25 0
2.125 0.375 0
2.25 0.375 0
2.125 0.375 0
2.25 0.375 0
2.125 0.5 0
2.25 0.5 0
2 0.375 0
2.125 0.375 0
2 0.5 0
2.125 0.5 0
2.5 0 0
2.625 0 0
2.5 0.125 0
2.625 0.125 0
2.625 0 0
2.75 0 0
2.625 0.125 0
2.75 0.125 0
2.625 0.125 0
2.75 0.125 0
2.625 0.25 0
2.75 0.25 0
2.5 0.125 0
2.625 0.125 0
2.5 0.25 0
2.625 0.25 0
2.75 0 0
2.875 0 0
2.75 0.125 0
2.875 0.125 0
2.875 0 0
3 0 0
2.875 0.125 0
3 0.125 0
2.875 0.125 0
3 0.125 0
2.875 0.25 0
3 0.25 0
2.75 0.125 0
2.875 0.125 0
2.75 0.25 0
2.875 0.25 0
2.75 0.25 0
2.875 0.25 0
2.75 0.375 0
2.875 0.375 0
2.875 0.25 0
3 0.25 0
2.875 0.375 0
3 0.375 0
2.875 0.375 0
3 0.375 0
2.875 0.5 0
3 0.5 0
2.75 0.375 0
2.875 0.375 0
2.75 0.5 0
2.875 0.5 0
2.5 0.25 0
2.625 0.25 0
2.5 0.375 0
2.625 0.375 0
2.625 0.25 0
2.75 0.25 0
2.625 0.375 0
2.75 0.375 0
2.625 0.375 0
2.75 0.375 0
2.625 0.5 0
2.75 0.5 0
2.5 0.375 0
2.625 0.375 0
2.5 0.5 0
2.625 0.5 0
2.5 0.5 0
2.625 0.5 0
2.5 0.625 0
2.625 0.625 0
2.625 0.5 0
2.75 0.5 0
2.625 0.625 0
2.75 0.625 0
2.625 0.625 0
2.75 0.625 0
2.625 0.75 0
2.75 0.75 0
2.5 0.625 0
2.625 0.625 0
2.5 0.75 0
2.625 0.75 0
2.75 0.5 0
2.875 0.5 0
2.75 0.625 0
2.875 0.625 0
2.875 0.5 0
3 0.5 0
2.875 0.625 0
3 0.625 0
2.875 0.625 0
3 0.625 0
2.875 0.75 0
3 0.75 0
2.75 0.625 0
2.875 0.625 0
2.75 0.75 0
2.875 0.75 0
2.75 0.75 0
2.875 0.75 0
2.75 0.875 0
2.875 0.875 0
2.875 0.75 0
3 0.75 0
2.875 0.875 0
3 0.875 0
2.875 0.875 0
3 0.875 0
2.875 1 0
3 1 0
2.75 0.875 0
2.875 0.875 0
2.75 1 0
2.875 1 0
2.5 0.75 0
2.625 0.75 0
2.5 0.875 0
2.625 0.875 0
2.625 0.75 0
2.75 0.75 0
2.625 0.875 0
2.75 0.875 0
2.625 0.875 0
2.75 0.875 0
2.625 1 0
2.75 1 0
2.5 0.875 0
2.625 0.875 0
2.5 1 0
2.625 1 0
2 0.5 0
2.125 0.5 0
2 0.625 0
2.125 0.625 0
2.125 0.5 0
2.25 0.5 0
2.125 0.625 0
2.25 0.625 0
2.125 0.625 0
2.25 0.625 0
2.125 0.75 0
2.25 0.75 0
2 0.625 0
2.125 0.625 0
2 0.75 0
2.125 0.75 0
2.25 0.5 0
2.375 0.5 0
2.25 0.625 0
2.375 0.625 0
2.375 0.5 0
2.5 0.5 0
2.375 0.625 0
2.5 0.625 0
2.375 0.625 0
2.5 0.625 0
2.375 0.75 0
2.5 0.75 0
2.25 0.625 0
2.375 0.625 0
2.25 0.75 0
2.375 0.75 0
2.25 0.75 0
2.375 0.75 0
2.25 0.875 0
2.375 0.875 0
2.375 0.75 0
2.5 0.75 0
2.375 0.875 0
2.5 0.875 0
2.375 0.875 0
2.5 0.875 0
2.375 1 0
2.5 1 0
2.25 0.875 0
2.375 0.875 0
2.25 1 0
2.375 1 0
2 0.75 0
2.125 0.75 0
2 0.875 0
2.125 0.875 0
2.125 0.75 0
2.25 0.75 0
2.125 0.875 0
2.25 0.875 0
2.125 0.875 0
2.25 0.875 0
2.125 1 0
2.25 1 0
2 0.875 0
2.125 0.875 0
2 1 0
2.125 1 0
3 0 0
3.125 0 0
3 0.125 0
3.125 0.125 0
3.125 0 0
3.25 0 0
3.125 0.125 0
3.25 0.125 0
3.125 0.125 0
3.25 0.125 0
3.125 0.25 0
3.25 0.25 0
3 0.125 0
3.125 0.125 0
3 0.25 0
3.125 0.25 0
3.25 0 0
3.375 0 0
3.25 0.125 0
3.375 0.125 0
3.375 0 0
3.5 0 0
3.375 0.125 0
3.5 0.125 0
3.375 0.125 0
3.5 0.125 0
3.375 0.25 0
3.5 0.25 0
3.25 0.125 0
3.375 0.125 0
3.25 0.25 0
3.375 0.25 0
3.25 0.25 0
3.375 0.25 0
3.25 0.375 0
3.375 0.375 0
3.375 0.25 0
3.5 0.25 0
3.375 0.375 0
3.5 0.375 0
3.375 0.375 0
3.5 0.375 0
3.375 0.5 0
3.5 0.5 0
3.25 0.375 0
3.375 0.375 0
3.25 0.5 0
[...]
<CellData Scalars="attribute">
<DataArray type="Int32" Name="attribute" format="ascii">
1
1
1
1
1
1
1
1
1
1
1
1
1
1
1
1
1
1
1
1
1
1
1
1
1
1
1
1
1
1
1
1
1
1
1
1
1
1
1
1
1
1
1
1
1
1
1
1
1
1
1
1
1
1
1
1
1
1
1
1
1
1
1
1
1
1
1
1
1
1
1
1
1
1
1
1
1
1
1
1
1
1
1
1
1
1
1
1
1
1
1
1
1
1
1
1
1
1
1
1
1
1
1
1
1
1
1
1
1
1
1
1
1
1
1
1
1
1
1
1
1
1
1
1
1
1
1
1
1
1
1
1
1
1
1
1
1
1
1
1
1
1
1
1
1
1
1
1
1
1
1
1
1
1
1
1
1
1
1
1
1
1
1
1
1
1
1
1
1
1
1
1
1
1
1
1
1
1
1
1
1
1
1
1
1
1
1
1
1
1
1
1
1
1
1
1
1
1
1
1
1
1
1
1
1
1
1
1
1
1
1
1
1
1
1
1
1
1
1
1
1
1
1
1
1
1
1
1
1
1
1
1
1
1
1
1
1
1
1
1
1
1
1
1
1
1
1
1
1
1
1
1
1
1
1
1
2
2
2
2
2
2
2
2
2
2
2
2
2
2
2
2
2
2
2
2
2
2
2
2
2
2
2
2
2
2
2
2
2
2
2
2
2
2
2
2
2
2
2
2
2
2
2
2
2
2
2
2
2
2
2
2
2
2
2
2
2
2
2
2
2
2
2
2
2
2
2
2
2
2
2
2
2
2
2
2
2
2
2
2
2
2
2
2
2
2
2
2
2
2
2
2
2
2
2
2
2
2
2
2
2
2
2
2
2
2
2
2
2
2
2
2
2
2
2
2
2
2
2
2
2
2
2
2
2
2
2
2
2
2
2
2
2
2
2
2
2
2
2
2
2
2
2
2
2
2
2
2
2
2
2
2
2
2
2
2
2
2
2
2
2
2
2
2
2
2
2
2
2
2
2
2
2
2
2
2
2
2
2
2
2
2
2
2
2
2
2
2
2
2
2
2
2
2
2
2
2
2
2
2
2
2
2
2
2
2
2
2
2
2
2
2
2
2
2
2
2
2
2
2
2
2
2
2
2
2
2
2
2
2
2
2
2
2
2
2
2
2
2
2
2
2
2
2
2
2
2
2
2
2
2
2
</DataArray>
</CellData>
<PointData >
<DataArray type="Float64" Name="Pressure" NumberOfComponents="1" format="ascii" >
-0.000782636
-1.53476e-06
-0.00128073
-2.54063e-06
-1.53476e-06
1.18451e-10
-2.54063e-06
2.05135e-10
-2.54063e-06
2.05135e-10
-1.70565e-06
1.39304e-10
-0.00128073
-2.54063e-06
-0.000853833
-1.70565e-06
1.18451e-10
-5.75833e-15
2.05135e-10
-1.0282e-14
-5.75833e-15
2.83419e-19
-1.0282e-14
5.24699e-19
-1.0282e-14
5.24699e-19
-7.1596e-15
3.75268e-19
2.05135e-10
-1.0282e-14
1.39304e-10
-7.1596e-15
1.39304e-10
-7.1596e-15
7.13897e-11
-3.65852e-15
-7.1596e-15
3.75268e-19
-3.65852e-15
1.91962e-19
-3.65852e-15
1.91962e-19
-1.21164e-16
6.09143e-21
7.13897e-11
-3.65852e-15
2.51869e-12
-1.21164e-16
-0.000853833
-1.70565e-06
-0.000426933
-8.66122e-07
-1.70565e-06
1.39304e-10
-8.66122e-07
7.13897e-11
-8.66122e-07
7.13897e-11
-1.9185e-08
2.51869e-12
-0.000426933
-8.66122e-07
-2.36039e-08
-1.9185e-08
2.83419e-19
-7.2257e-24
5.24699e-19
-1.38652e-23
-7.2257e-24
3.20192e-28
-1.38652e-23
6.17749e-28
-1.38652e-23
6.17749e-28
-1.02728e-23
4.64218e-28
5.24699e-19
-1.38652e-23
3.75268e-19
-1.02728e-23
3.20192e-28
-3.45085e-33
6.17749e-28
-7.34466e-33
-3.45085e-33
2.35776e-37
-7.34466e-33
4.61654e-37
-7.34466e-33
4.61654e-37
-5.94081e-33
3.57507e-37
6.17749e-28
-7.34466e-33
4.64218e-28
-5.94081e-33
4.64218e-28
-5.94081e-33
2.41346e-28
-3.13266e-33
-5.94081e-33
3.57507e-37
-3.13266e-33
1.8986e-37
-3.13266e-33
1.8986e-37
-9.03584e-35
4.8343e-39
2.41346e-28
-3.13266e-33
6.92344e-30
-9.03584e-35
3.75268e-19
-1.02728e-23
1.91962e-19
-5.28725e-24
-1.02728e-23
4.64218e-28
-5.28725e-24
2.41346e-28
-5.28725e-24
2.41346e-28
-1.6154e-25
6.92344e-30
1.91962e-19
-5.28725e-24
6.09143e-21
-1.6154e-25
6.09143e-21
-1.6154e-25
-1.82372e-19
5.03548e-24
-1.6154e-25
6.92344e-30
5.03548e-24
-2.30783e-28
5.03548e-24
-2.30783e-28
1.0236e-23
-4.62991e-28
-1.82372e-19
5.03548e-24
-3.73503e-19
1.0236e-23
6.92344e-30
-9.03584e-35
-2.30783e-28
2.99576e-33
-9.03584e-35
4.8343e-39
2.99576e-33
-1.82693e-37
2.99576e-33
-1.82693e-37
5.92476e-33
-3.56928e-37
-2.30783e-28
2.99576e-33
-4.62991e-28
5.92476e-33
-4.62991e-28
5.92476e-33
-6.27609e-28
7.45658e-33
5.92476e-33
-3.56928e-37
7.45658e-33
-4.68114e-37
7.45658e-33
-4.68114e-37
3.52621e-33
-2.4034e-37
-6.27609e-28
7.45658e-33
-3.274e-28
3.52621e-33
-3.73503e-19
1.0236e-23
-5.34056e-19
1.41013e-23
1.0236e-23
-4.62991e-28
1.41013e-23
-6.27609e-28
1.41013e-23
-6.27609e-28
7.40114e-24
-3.274e-28
-5.34056e-19
1.41013e-23
-2.90874e-19
7.40114e-24
-2.36039e-08
-1.9185e-08
0.000426895
8.3516e-07
-1.9185e-08
2.51869e-12
8.3516e-07
-6.73337e-11
8.3516e-07
-6.73337e-11
1.69691e-06
-1.3819e-10
0.000426895
8.3516e-07
0.000853822
1.69691e-06
2.51869e-12
-1.21164e-16
-6.73337e-11
3.46536e-15
-1.21164e-16
6.09143e-21
3.46536e-15
-1.82372e-19
3.46536e-15
-1.82372e-19
7.11469e-15
-3.73503e-19
-6.73337e-11
3.46536e-15
-1.3819e-10
7.11469e-15
-1.3819e-10
7.11469e-15
-2.08933e-10
1.04734e-14
7.11469e-15
-3.73503e-19
1.04734e-14
-5.34056e-19
1.04734e-14
-5.34056e-19
5.92128e-15
-2.90874e-19
-2.08933e-10
1.04734e-14
-1.22341e-10
5.92128e-15
0.000853822
1.69691e-06
0.00128076
2.56923e-06
1.69691e-06
-1.3819e-10
2.56923e-06
-2.08933e-10
2.56923e-06
-2.08933e-10
1.56505e-06
-1.22341e-10
0.00128076
2.56923e-06
0.000782673
1.56505e-06
2.35776e-37
4.43245e-43
4.61654e-37
1.76179e-43
4.43245e-43
1.36745e-46
1.76179e-43
2.65347e-46
1.76179e-43
2.65347e-46
-2.66586e-43
2.07081e-46
4.61654e-37
1.76179e-43
3.57507e-37
-2.66586e-43
1.36745e-46
1.55763e-51
2.65347e-46
2.63698e-51
1.55763e-51
6.67738e-56
2.63698e-51
1.27238e-55
2.63698e-51
1.27238e-55
1.82071e-51
9.87584e-56
2.65347e-46
2.63698e-51
2.07081e-46
1.82071e-51
2.07081e-46
1.82071e-51
1.11606e-46
9.49117e-52
1.82071e-51
9.87584e-56
9.49117e-52
5.35474e-56
9.49117e-52
5.35474e-56
1.59673e-53
1.01846e-57
1.11606e-46
9.49117e-52
2.47246e-48
1.59673e-53
3.57507e-37
-2.66586e-43
1.8986e-37
-1.83203e-43
-2.66586e-43
2.07081e-46
-1.83203e-43
1.11606e-46
-1.83203e-43
1.11606e-46
-1.05988e-44
2.47246e-48
1.8986e-37
-1.83203e-43
4.8343e-39
-1.05988e-44
6.67738e-56
1.06817e-60
1.27238e-55
1.91495e-60
1.06817e-60
2.6987e-65
1.91495e-60
5.06858e-65
1.91495e-60
5.06858e-65
1.40703e-60
3.90707e-65
1.27238e-55
1.91495e-60
9.87584e-56
1.40703e-60
2.6987e-65
4.54558e-70
5.06858e-65
8.3001e-70
4.54558e-70
8.79528e-75
8.3001e-70
1.63834e-74
8.3001e-70
1.63834e-74
6.23521e-70
1.25809e-74
5.06858e-65
8.3001e-70
3.90707e-65
6.23521e-70
3.90707e-65
6.23521e-70
2.12135e-65
3.3523e-70
6.23521e-70
1.25809e-74
3.3523e-70
6.83229e-75
3.3523e-70
6.83229e-75
4.82158e-72
9.57008e-77
2.12135e-65
3.3523e-70
3.45549e-67
4.82158e-72
9.87584e-56
1.40703e-60
5.35474e-56
7.49212e-61
1.40703e-60
3.90707e-65
7.49212e-61
2.12135e-65
7.49212e-61
2.12135e-65
1.20403e-62
3.45549e-67
5.35474e-56
7.49212e-61
1.01846e-57
1.20403e-62
1.01846e-57
1.20403e-62
-5.20815e-56
-7.32175e-61
1.20403e-62
3.45549e-67
-7.32175e-61
-2.07196e-65
-7.32175e-61
-2.07196e-65
-1.40748e-60
-3.90571e-65
-5.20815e-56
-7.32175e-61
-9.86962e-56
-1.40748e-60
3.45549e-67
4.82158e-72
-2.07196e-65
-3.28411e-70
4.82158e-72
9.57008e-77
-3.28411e-70
-6.69612e-75
-3.28411e-70
-6.69612e-75
-6.23618e-70
-1.25787e-74
-2.07196e-65
-3.28411e-70
-3.90571e-65
-6.23618e-70
-3.90571e-65
-6.23618e-70
-5.11522e-65
-8.37197e-70
-6.23618e-70
-1.25787e-74
-8.37197e-70
-1.65149e-74
-8.37197e-70
-1.65149e-74
-4.59679e-70
-8.88859e-75
-5.11522e-65
-8.37197e-70
-2.73174e-65
-4.59679e-70
-9.86962e-56
-1.40748e-60
-1.28582e-55
-1.93394e-60
-1.40748e-60
-3.90571e-65
-1.93394e-60
-5.11522e-65
-1.93394e-60
-5.11522e-65
-1.08187e-60
-2.73174e-65
-1.28582e-55
-1.93394e-60
-6.77222e-56
-1.08187e-60
4.8343e-39
-1.05988e-44
-1.82693e-37
1.66605e-43
-1.05988e-44
2.47246e-48
1.66605e-43
-1.08007e-46
1.66605e-43
-1.08007e-46
2.61232e-43
-2.06866e-46
-1.82693e-37
1.66605e-43
-3.56928e-37
2.61232e-43
2.47246e-48
1.59673e-53
-1.08007e-46
-9.2663e-52
1.59673e-53
1.01846e-57
-9.2663e-52
-5.20815e-56
-9.2663e-52
-5.20815e-56
-1.82238e-51
-9.86962e-56
-1.08007e-46
-9.2663e-52
-2.06866e-46
-1.82238e-51
-2.06866e-46
-1.82238e-51
-2.68574e-46
-2.66674e-51
-1.82238e-51
-9.86962e-56
-2.66674e-51
-1.28582e-55
-2.66674e-51
-1.28582e-55
-1.57996e-51
-6.77222e-56
-2.68574e-46
-2.66674e-51
-1.39012e-46
-1.57996e-51
-3.56928e-37
2.61232e-43
-4.68114e-37
-1.77278e-43
2.61232e-43
-2.06866e-46
-1.77278e-43
-2.68574e-46
-1.77278e-43
-2.68574e-46
-4.47699e-43
-1.39012e-46
-4.68114e-37
-1.77278e-43
-2.4034e-37
-4.47699e-43
8.79528e-75
1.40733e-79
1.63834e-74
2.58865e-79
1.40733e-79
2.2963e-84
2.58865e-79
4.25999e-84
2.58865e-79
4.25999e-84
1.96526e-79
3.26739e-84
1.63834e-74
2.58865e-79
1.25809e-74
1.96526e-79
2.2963e-84
3.37257e-89
4.25999e-84
6.22213e-89
3.37257e-89
4.83783e-94
6.22213e-89
8.95726e-94
6.22213e-89
8.95726e-94
4.74998e-89
6.87118e-94
4.25999e-84
6.22213e-89
3.26739e-84
4.74998e-89
3.26739e-84
4.74998e-89
1.77482e-84
2.57459e-89
4.74998e-89
6.87118e-94
2.57459e-89
3.73354e-94
2.57459e-89
3.73354e-94
2.86306e-91
3.92253e-96
1.77482e-84
2.57459e-89
2.14873e-86
2.86306e-91
1.25809e-74
1.96526e-79
6.83229e-75
1.06214e-79
1.96526e-79
3.26739e-84
1.06214e-79
1.77482e-84
1.06214e-79
1.77482e-84
1.34702e-81
2.14873e-86
6.83229e-75
1.06214e-79
9.57008e-77
1.34702e-81
4.83783e-94
6.46865e-99
8.95726e-94
1.19477e-98
6.46865e-99
8.32787e-104
1.19477e-98
1.54035e-103
1.19477e-98
1.54035e-103
9.14928e-99
1.18235e-103
8.95726e-94
1.19477e-98
6.87118e-94
9.14928e-99
8.32787e-104
1.01499e-108
1.54035e-103
1.87528e-108
1.01499e-108
1.18688e-113
1.87528e-108
2.19396e-113
1.87528e-108
2.19396e-113
1.43872e-108
1.68525e-113
1.54035e-103
1.87528e-108
1.18235e-103
1.43872e-108
1.18235e-103
1.43872e-108
6.42636e-104
7.81707e-109
1.43872e-108
1.68525e-113
7.81707e-109
9.16166e-114
7.81707e-109
9.16166e-114
6.64664e-111
7.30085e-116
6.42636e-104
7.81707e-109
5.87495e-106
6.64664e-111
6.87118e-94
9.14928e-99
3.73354e-94
4.96695e-99
9.14928e-99
1.18235e-103
4.96695e-99
6.42636e-104
4.96695e-99
6.42636e-104
4.83201e-101
5.87495e-106
3.73354e-94
4.96695e-99
3.92253e-96
4.83201e-101
3.92253e-96
4.83201e-101
-3.67796e-94
-4.89862e-99
4.83201e-101
5.87495e-106
-4.89862e-99
-6.34318e-104
-4.89862e-99
-6.34318e-104
-9.14939e-99
-1.18232e-103
-3.67796e-94
-4.89862e-99
-6.87088e-94
-9.14939e-99
5.87495e-106
6.64664e-111
-6.34318e-104
-7.72307e-109
6.64664e-111
7.30085e-116
-7.72307e-109
-9.05832e-114
-7.72307e-109
-9.05832e-114
-1.43871e-108
-1.68521e-113
-6.34318e-104
-7.72307e-109
-1.18232e-103
-1.43871e-108
-1.18232e-103
-1.43871e-108
-1.54858e-103
-1.88465e-108
-1.43871e-108
-1.68521e-113
-1.88465e-108
-2.20419e-113
-1.88465e-108
-2.20419e-113
-1.02162e-108
-1.19412e-113
-1.54858e-103
-1.88465e-108
-8.38618e-104
-1.02162e-108
-6.87088e-94
-9.14939e-99
-9.01209e-94
-1.20162e-98
-9.14939e-99
-1.18232e-103
-1.20162e-98
-1.54858e-103
-1.20162e-98
-1.54858e-103
-6.51715e-99
-8.38618e-104
-9.01209e-94
-1.20162e-98
-4.87669e-94
-6.51715e-99
9.57008e-77
1.34702e-81
-6.69612e-75
-1.0431e-79
1.34702e-81
2.14873e-86
-1.0431e-79
-1.74433e-84
-1.0431e-79
-1.74433e-84
-1.96541e-79
-3.26711e-84
-6.69612e-75
-1.0431e-79
-1.25787e-74
-1.96541e-79
2.14873e-86
2.86306e-91
-1.74433e-84
-2.53411e-89
2.86306e-91
3.92253e-96
-2.53411e-89
-3.67796e-94
-2.53411e-89
-3.67796e-94
-4.75015e-89
-6.87088e-94
-1.74433e-84
-2.53411e-89
-3.26711e-84
-4.75015e-89
-3.26711e-84
-4.75015e-89
-4.28986e-84
-6.26306e-89
-4.75015e-89
-6.87088e-94
-6.26306e-89
-9.01209e-94
-6.26306e-89
-9.01209e-94
-3.40155e-89
-4.87669e-94
-4.28986e-84
-6.26306e-89
-2.31748e-84
-3.40155e-89
-1.25787e-74
-1.96541e-79
-1.65149e-74
-2.60819e-79
-1.96541e-79
-3.26711e-84
-2.60819e-79
-4.28986e-84
-2.60819e-79
-4.28986e-84
-1.42119e-79
-2.31748e-84
-1.65149e-74
-2.60819e-79
-8.88859e-75
-1.42119e-79
1.18688e-113
1.3241e-118
2.19396e-113
2.44628e-118
1.3241e-118
1.4177e-123
2.44628e-118
2.61951e-123
2.44628e-118
2.61951e-123
1.879e-118
2.01339e-123
2.19396e-113
2.44628e-118
1.68525e-113
1.879e-118
1.4177e-123
1.45471e-128
2.61951e-123
2.68705e-128
1.45471e-128
1.43479e-133
2.68705e-128
2.65015e-133
2.68705e-128
2.65015e-133
2.06555e-128
2.03799e-133
2.61951e-123
2.68705e-128
2.01339e-123
2.06555e-128
2.01339e-123
2.06555e-128
1.09469e-123
1.12298e-128
2.06555e-128
2.03799e-133
1.12298e-128
1.1081e-133
1.12298e-128
1.1081e-133
7.29152e-131
6.7311e-136
1.09469e-123
1.12298e-128
7.61309e-126
7.29152e-131
1.68525e-113
1.879e-118
9.16166e-114
1.02136e-118
1.879e-118
2.01339e-123
1.02136e-118
1.09469e-123
1.02136e-118
1.09469e-123
7.58854e-121
7.61309e-126
9.16166e-114
1.02136e-118
7.30085e-116
7.58854e-121
1.43479e-133
1.36037e-138
2.65015e-133
2.51217e-138
1.36037e-138
1.24207e-143
2.51217e-138
2.29347e-143
2.51217e-138
2.29347e-143
1.93218e-138
1.76443e-143
2.65015e-133
2.51217e-138
2.03799e-133
1.93218e-138
1.24207e-143
1.09272e-148
2.29347e-143
2.01737e-148
1.09272e-148
9.27399e-154
2.01737e-148
1.71196e-153
2.01737e-148
1.71196e-153
1.55224e-148
1.31748e-153
2.29347e-143
2.01737e-148
1.76443e-143
1.55224e-148
1.76443e-143
1.55224e-148
9.59335e-144
8.4393e-149
1.55224e-148
1.31748e-153
8.4393e-149
7.1628e-154
8.4393e-149
7.1628e-154
4.18867e-151
3.32551e-156
9.59335e-144
8.4393e-149
5.09321e-146
4.18867e-151
2.03799e-133
1.93218e-138
1.1081e-133
1.05053e-138
1.93218e-138
1.76443e-143
1.05053e-138
9.59335e-144
1.05053e-138
9.59335e-144
5.96262e-141
5.09321e-146
1.1081e-133
1.05053e-138
6.7311e-136
5.96262e-141
6.7311e-136
5.96262e-141
-1.09857e-133
-1.04208e-138
5.96262e-141
5.09321e-146
-1.04208e-138
-9.52119e-144
-1.04208e-138
-9.52119e-144
-1.93213e-138
-1.76438e-143
-1.09857e-133
-1.04208e-138
-2.03794e-133
-1.93213e-138
5.09321e-146
4.18867e-151
-9.52119e-144
-8.37994e-149
4.18867e-151
3.32551e-156
-8.37994e-149
-7.11566e-154
-8.37994e-149
-7.11566e-154
-1.55219e-148
-1.31744e-153
-9.52119e-144
-8.37994e-149
-1.76438e-143
-1.55219e-148
-1.76438e-143
-1.55219e-148
-2.30056e-143
-2.02319e-148
-1.55219e-148
-1.31744e-153
-2.02319e-148
-1.71657e-153
-2.02319e-148
-1.71657e-153
-1.09684e-148
-9.30665e-154
-2.30056e-143
-2.02319e-148
-1.24709e-143
-1.09684e-148
-2.03794e-133
-1.93213e-138
-2.65954e-133
-2.52048e-138
-1.93213e-138
-1.76438e-143
-2.52048e-138
-2.30056e-143
-2.52048e-138
-2.30056e-143
-1.36626e-138
-1.24709e-143
-2.65954e-133
-2.52048e-138
-1.44144e-133
-1.36626e-138
7.30085e-116
7.58854e-121
-9.05832e-114
-1.01063e-118
7.58854e-121
7.61309e-126
-1.01063e-118
-1.08391e-123
-1.01063e-118
-1.08391e-123
-1.87897e-118
-2.01335e-123
-9.05832e-114
-1.01063e-118
-1.68521e-113
-1.87897e-118
7.61309e-126
7.29152e-131
-1.08391e-123
-1.11266e-128
7.29152e-131
6.7311e-136
-1.11266e-128
-1.09857e-133
-1.11266e-128
-1.09857e-133
-2.06552e-128
-2.03794e-133
-1.08391e-123
-1.11266e-128
-2.01335e-123
-2.06552e-128
-2.01335e-123
-2.06552e-128
-2.63016e-123
-2.69726e-128
-2.06552e-128
-2.03794e-133
-2.69726e-128
-2.65954e-133
-2.69726e-128
-2.65954e-133
-1.46194e-128
-1.44144e-133
-2.63016e-123
-2.69726e-128
-1.42524e-123
-1.46194e-128
-1.68521e-113
-1.87897e-118
-2.20419e-113
-2.45694e-118
-1.87897e-118
-2.01335e-123
-2.45694e-118
-2.63016e-123
-2.45694e-118
-2.63016e-123
-1.33165e-118
-1.42524e-123
-2.20419e-113
-2.45694e-118
-1.19412e-113
-1.33165e-118
9.27399e-154
7.59864e-159
1.71196e-153
1.4025e-158
7.59864e-159
6.01612e-164
1.4025e-158
1.11028e-163
1.4025e-158
1.11028e-163
1.07946e-158
8.54657e-164
1.71196e-153
1.4025e-158
1.31748e-153
1.07946e-158
6.01612e-164
4.60595e-169
1.11028e-163
8.49931e-169
4.60595e-169
3.41253e-174
8.49931e-169
6.29643e-174
8.49931e-169
6.29643e-174
6.54313e-169
4.84774e-174
1.11028e-163
8.49931e-169
8.54657e-164
6.54313e-169
8.54657e-164
6.54313e-169
4.64616e-164
3.55685e-169
6.54313e-169
4.84774e-174
3.55685e-169
2.63511e-174
3.55685e-169
2.63511e-174
1.35163e-171
9.37e-177
4.64616e-164
3.55685e-169
1.88731e-166
1.35163e-171
1.31748e-153
1.07946e-158
7.1628e-154
5.86846e-159
1.07946e-158
8.54657e-164
5.86846e-159
4.64616e-164
5.86846e-159
4.64616e-164
2.54806e-161
1.88731e-166
7.1628e-154
5.86846e-159
3.32551e-156
2.54806e-161
3.41253e-174
2.44837e-179
6.29643e-174
4.51698e-179
2.44837e-179
1.70219e-184
4.51698e-179
3.14005e-184
4.51698e-179
3.14005e-184
3.47799e-179
2.41796e-184
6.29643e-174
4.51698e-179
4.84774e-174
3.47799e-179
1.70219e-184
1.14744e-189
3.14005e-184
2.11649e-189
1.14744e-189
7.50404e-195
2.11649e-189
1.38402e-194
2.11649e-189
1.38402e-194
1.62989e-189
1.06588e-194
3.14005e-184
2.11649e-189
2.41796e-184
1.62989e-189
2.41796e-184
1.62989e-189
1.31421e-184
8.85832e-190
1.62989e-189
1.06588e-194
8.85832e-190
5.79272e-195
8.85832e-190
5.79272e-195
2.58228e-192
1.58089e-197
1.31421e-184
8.85832e-190
4.09283e-187
2.58228e-192
4.84774e-174
3.47799e-179
2.63511e-174
1.89045e-179
3.47799e-179
2.41796e-184
1.89045e-179
1.31421e-184
1.89045e-179
1.31421e-184
6.29035e-182
4.09283e-187
2.63511e-174
1.89045e-179
9.37e-177
6.29035e-182
9.37e-177
6.29035e-182
-2.6218e-174
-1.88151e-179
6.29035e-182
4.09283e-187
-1.88151e-179
-1.30839e-184
-1.88151e-179
-1.30839e-184
-3.47785e-179
-2.41786e-184
-2.6218e-174
-1.88151e-179
-4.84754e-174
-3.47785e-179
4.09283e-187
2.58228e-192
-1.30839e-184
-8.8216e-190
2.58228e-192
1.58089e-197
-8.8216e-190
-5.77023e-195
-8.8216e-190
-5.77023e-195
-1.62982e-189
-1.06584e-194
-1.30839e-184
-8.8216e-190
-2.41786e-184
-1.62982e-189
-2.41786e-184
-1.62982e-189
-3.14565e-184
-2.12001e-189
-1.62982e-189
-1.06584e-194
-2.12001e-189
-1.38617e-194
-2.12001e-189
-1.38617e-194
-1.14993e-189
-7.51926e-195
-3.14565e-184
-2.12001e-189
-1.70616e-184
-1.14993e-189
-4.84754e-174
-3.47785e-179
-6.30931e-174
-4.52561e-179
-3.47785e-179
-2.41786e-184
-4.52561e-179
-3.14565e-184
-4.52561e-179
-3.14565e-184
-2.45448e-179
-1.70616e-184
-6.30931e-174
-4.52561e-179
-3.42166e-174
-2.45448e-179
3.32551e-156
2.54806e-161
-7.11566e-154
-5.83233e-159
2.54806e-161
1.88731e-166
-5.83233e-159
-4.61938e-164
-5.83233e-159
-4.61938e-164
-1.07942e-158
-8.54627e-164
-7.11566e-154
-5.83233e-159
-1.31744e-153
-1.07942e-158
1.88731e-166
1.35163e-171
-4.61938e-164
-3.53767e-169
1.35163e-171
9.37e-177
-3.53767e-169
-2.6218e-174
-3.53767e-169
-2.6218e-174
-6.54289e-169
-4.84754e-174
-4.61938e-164
-3.53767e-169
-8.54627e-164
-6.54289e-169
-8.54627e-164
-6.54289e-169
-1.11289e-163
-8.51794e-169
-6.54289e-169
-4.84754e-174
-8.51794e-169
-6.30931e-174
-8.51794e-169
-6.30931e-174
-4.61914e-169
-3.42166e-174
-1.11289e-163
-8.51794e-169
-6.03458e-164
-4.61914e-169
-1.31744e-153
-1.07942e-158
-1.71657e-153
-1.40603e-158
-1.07942e-158
-8.54627e-164
-1.40603e-158
-1.11289e-163
-1.40603e-158
-1.11289e-163
-7.62362e-159
-6.03458e-164
-1.71657e-153
-1.40603e-158
-9.30665e-154
-7.62362e-159
7.50404e-195
4.76362e-200
1.38402e-194
8.78511e-200
4.76362e-200
2.93684e-205
8.78511e-200
5.41571e-205
8.78511e-200
5.41571e-205
6.7661e-200
4.17127e-205
1.38402e-194
8.78511e-200
1.06588e-194
6.7661e-200
2.93684e-205
1.75928e-210
5.41571e-205
3.24397e-210
1.75928e-210
1.02447e-215
3.24397e-210
1.88891e-215
3.24397e-210
1.88891e-215
2.49867e-210
1.45499e-215
5.41571e-205
3.24397e-210
4.17127e-205
2.49867e-210
4.17127e-205
2.49867e-210
2.26673e-205
1.35775e-210
2.49867e-210
1.45499e-215
1.35775e-210
7.90596e-216
1.35775e-210
7.90596e-216
3.04323e-213
1.66003e-218
2.26673e-205
1.35775e-210
5.42431e-208
3.04323e-213
1.06588e-194
6.7661e-200
5.79272e-195
3.67697e-200
6.7661e-200
4.17127e-205
3.67697e-200
2.26673e-205
3.67697e-200
2.26673e-205
9.39583e-203
5.42431e-208
5.79272e-195
3.67697e-200
1.58089e-197
9.39583e-203
1.02447e-215
5.8018e-221
1.88891e-215
1.06966e-220
5.8018e-221
3.19672e-226
1.06966e-220
5.89332e-226
1.06966e-220
5.89332e-226
8.2397e-221
4.53984e-226
1.88891e-215
1.06966e-220
1.45499e-215
8.2397e-221
3.19672e-226
1.71432e-231
5.89332e-226
3.16025e-231
1.71432e-231
8.95127e-237
3.16025e-231
1.65003e-236
3.16025e-231
1.65003e-236
2.43453e-231
1.27115e-236
5.89332e-226
3.16025e-231
4.53984e-226
2.43453e-231
4.53984e-226
2.43453e-231
2.4666e-226
1.32269e-231
2.43453e-231
1.27115e-236
1.32269e-231
6.90597e-237
1.32269e-231
6.90597e-237
2.28596e-234
1.11902e-239
2.4666e-226
1.32269e-231
4.54783e-229
2.28596e-234
1.45499e-215
8.2397e-221
7.90596e-216
4.47701e-221
8.2397e-221
4.53984e-226
4.47701e-221
2.4666e-226
4.47701e-221
2.4666e-226
8.808e-224
4.54783e-229
7.90596e-216
4.47701e-221
1.66003e-218
8.808e-224
1.66003e-218
8.808e-224
-7.88227e-216
-4.46443e-221
8.808e-224
4.54783e-229
-4.46443e-221
-2.4601e-226
-4.46443e-221
-2.4601e-226
-8.23929e-221
-4.5396e-226
-7.88227e-216
-4.46443e-221
-1.45492e-215
-8.23929e-221
4.54783e-229
2.28596e-234
-2.4601e-226
-1.31942e-231
2.28596e-234
1.11902e-239
-1.31942e-231
-6.88994e-237
-1.31942e-231
-6.88994e-237
-2.4344e-231
-1.27108e-236
-2.4601e-226
-1.31942e-231
-4.5396e-226
-2.4344e-231
-4.5396e-226
-2.4344e-231
-5.89936e-226
-3.16327e-231
-2.4344e-231
-1.27108e-236
-3.16327e-231
-1.6515e-236
-3.16327e-231
-1.6515e-236
-1.71646e-231
-8.96167e-237
-5.89936e-226
-3.16327e-231
-3.20099e-226
-1.71646e-231
-1.45492e-215
-8.23929e-221
-1.89113e-215
-1.07084e-220