<VTKFile type="UnstructuredGrid" version="0.1" byte_order="LittleEndian">
<UnstructuredGrid>
<Piece NumberOfPoints="2048" NumberOfCells="512">
<Points>
<DataArray type="Float64" NumberOfComponents="3" format="ascii">
0 0 0
0.125 0 0
0 0.125 0
0.125 0.125 0
0.125 0 0
0.25 0 0
0.125 0.125 0
0.25 0.125 0
0.125 0.125 0
0.25 0.125 0
0.125 0.25 0
0.25 0.25 0
0 0.125 0
0.125 0.125 0
0 0.25 0
0.125 0.25 0
0.25 0 0
0.375 0 0
0.25 0.125 0
0.375 0.125 0
0.375 0 0
0.5 0 0
0.375 0.125 0
0.5 0.125 0
0.375 0.125 0
0.5 0.125 0
0.375 0.25 0
0.5 0.25 0
0.25 0.125 0
0.375 0.125 0
0.25 0.25 0
0.375 0.25 0
0.25 0.25 0
0.375 0.25 0
0.25 0.375 0
0.375 0.375 0
0.375 0.25 0
0.5 0.25 0
0.375 0.375 0
0.5 0.375 0
0.375 0.375 0
0.5 0.375 0
0.375 0.5 0
0.5 0.5 0
0.25 0.375 0
0.375 0.375 0
0.25 0.5 0
0.375 0.5 0
0 0.25 0
0.125 0.25 0
0 0.375 0
0.125 0.375 0
0.125 0.25 0
0.25 0.25 0
0.125 0.375 0
0.25 0.375 0
0.125 0.375 0
0.25 0.375 0
0.125 0.5 0
0.25 0.5 0
0 0.375 0
0.125 0.375 0
0 0.5 0
0.125 0.5 0
0.5 0 0
0.625 0 0
0.5 0.125 0
0.625 0.125 0
0.625 0 0
0.75 0 0
0.625 0.125 0
0.75 0.125 0
0.625 0.125 0
0.75 0.125 0
0.625 0.25 0
0.75 0.25 0
0.5 0.125 0
0.625 0.125 0
0.5 0.25 0
0.625 0.25 0
0.75 0 0
0.875 0 0
0.75 0.125 0
0.875 0.125 0
0.875 0 0
1 0 0
0.875 0.125 0
1 0.125 0
0.875 0.125 0
1 0.125 0
0.875 0.25 0
1 0.25 0
0.75 0.125 0
0.875 0.125 0
0.75 0.25 0
0.875 0.25 0
0.75 0.25 0
0.875 0.25 0
0.75 0.375 0
0.875 0.375 0
0.875 0.25 0
1 0.25 0
0.875 0.375 0
1 0.375 0
0.875 0.375 0
1 0.375 0
0.875 0.5 0
1 0.5 0
0.75 0.375 0
0.875 0.375 0
0.75 0.5 0
0.875 0.5 0
0.5 0.25 0
0.625 0.25 0
0.5 0.375 0
0.625 0.375 0
0.625 0.25 0
0.75 0.25 0
0.625 0.375 0
0.75 0.375 0
0.625 0.375 0
0.75 0.375 0
0.625 0.5 0
0.75 0.5 0
0.5 0.375 0
0.625 0.375 0
0.5 0.5 0
0.625 0.5 0
0.5 0.5 0
0.625 0.5 0
0.5 0.625 0
0.625 0.625 0
0.625 0.5 0
0.75 0.5 0
0.625 0.625 0
0.75 0.625 0
0.625 0.625 0
0.75 0.625 0
0.625 0.75 0
0.75 0.75 0
0.5 0.625 0
0.625 0.625 0
0.5 0.75 0
0.625 0.75 0
0.75 0.5 0
0.875 0.5 0
0.75 0.625 0
0.875 0.625 0
0.875 0.5 0
1 0.5 0
0.875 0.625 0
1 0.625 0
0.875 0.625 0
1 0.625 0
0.875 0.75 0
1 0.75 0
0.75 0.625 0
0.875 0.625 0
0.75 0.75 0
0.875 0.75 0
0.75 0.75 0
0.875 0.75 0
0.75 0.875 0
0.875 0.875 0
0.875 0.75 0
1 0.75 0
0.875 0.875 0
1 0.875 0
0.875 0.875 0
1 0.875 0
0.875 1 0
1 1 0
0.75 0.875 0
0.875 0.875 0
0.75 1 0
0.875 1 0
0.5 0.75 0
0.625 0.75 0
0.5 0.875 0
0.625 0.875 0
0.625 0.75 0
0.75 0.75 0
0.625 0.875 0
0.75 0.875 0
0.625 0.875 0
0.75 0.875 0
0.625 1 0
0.75 1 0
0.5 0.875 0
0.625 0.875 0
0.5 1 0
0.625 1 0
0 0.5 0
0.125 0.5 0
0 0.625 0
0.125 0.625 0
0.125 0.5 0
0.25 0.5 0
0.125 0.625 0
0.25 0.625 0
0.125 0.625 0
0.25 0.625 0
0.125 0.75 0
0.25 0.75 0
0 0.625 0
0.125 0.625 0
0 0.75 0
0.125 0.75 0
0.25 0.5 0
0.375 0.5 0
0.25 0.625 0
0.375 0.625 0
0.375 0.5 0
0.5 0.5 0
0.375 0.625 0
0.5 0.625 0
0.375 0.625 0
0.5 0.625 0
0.375 0.75 0
0.5 0.75 0
0.25 0.625 0
0.375 0.625 0
0.25 0.75 0
0.375 0.75 0
0.25 0.75 0
0.375 0.75 0
0.25 0.875 0
0.375 0.875 0
0.375 0.75 0
0.5 0.75 0
0.375 0.875 0
0.5 0.875 0
0.375 0.875 0
0.5 0.875 0
0.375 1 0
0.5 1 0
0.25 0.875 0
0.375 0.875 0
0.25 1 0
0.375 1 0
0 0.75 0
0.125 0.75 0
0 0.875 0
0.125 0.875 0
0.125 0.75 0
0.25 0.75 0
0.125 0.875 0
0.25 0.875 0
0.125 0.875 0
0.25 0.875 0
0.125 1 0
0.25 1 0
0 0.875 0
0.125 0.875 0
0 1 0
0.125 1 0
1 0 0
1.125 0 0
1 0.125 0
1.125 0.125 0
1.125 0 0
1.25 0 0
1.125 0.125 0
1.25 0.125 0
1.125 0.125 0
1.25 0.125 0
1.125 0.25 0
1.25 0.25 0
1 0.125 0
1.125 0.125 0
1 0.25 0
1.125 0.25 0
1.25 0 0
1.375 0 0
1.25 0.125 0
1.375 0.125 0
1.375 0 0
1.5 0 0
1.375 0.125 0
1.5 0.125 0
1.375 0.125 0
1.5 0.125 0
1.375 0.25 0
1.5 0.25 0
1.25 0.125 0
1.375 0.125 0
1.25 0.25 0
1.375 0.25 0
1.25 0.25 0
1.375 0.25 0
1.25 0.375 0
1.375 0.375 0
1.375 0.25 0
1.5 0.25 0
1.375 0.375 0
1.5 0.375 0
1.375 0.375 0
1.5 0.375 0
1.375 0.5 0
1.5 0.5 0
1.25 0.375 0
1.375 0.375 0
1.25 0.5 0
1.375 0.5 0
1 0.25 0
1.125 0.25 0
1 0.375 0
1.125 0.375 0
1.125 0.25 0
1.25 0.25 0
1.125 0.375 0
1.25 0.375 0
1.125 0.375 0
1.25 0.375 0
1.125 0.5 0
1.25 0.5 0
1 0.375 0
1.125 0.375 0
1 0.5 0
1.125 0.5 0
1.5 0 0
1.625 0 0
1.5 0.125 0
1.625 0.125 0
1.625 0 0
1.75 0 0
1.625 0.125 0
1.75 0.125 0
1.625 0.125 0
1.75 0.125 0
1.625 0.25 0
1.75 0.25 0
1.5 0.125 0
1.625 0.125 0
1.5 0.25 0
1.625 0.25 0
1.75 0 0
1.875 0 0
1.75 0.125 0
1.875 0.125 0
1.875 0 0
2 0 0
1.875 0.125 0
2 0.125 0
1.875 0.125 0
2 0.125 0
1.875 0.25 0
2 0.25 0
1.75 0.125 0
1.875 0.125 0
1.75 0.25 0
1.875 0.25 0
1.75 0.25 0
1.875 0.25 0
1.75 0.375 0
1.875 0.375 0
1.875 0.25 0
2 0.25 0
1.875 0.375 0
2 0.375 0
1.875 0.375 0
2 0.375 0
1.875 0.5 0
2 0.5 0
1.75 0.375 0
1.875 0.375 0
1.75 0.5 0
1.875 0.5 0
1.5 0.25 0
1.625 0.25 0
1.5 0.375 0
1.625 0.375 0
1.625 0.25 0
1.75 0.25 0
1.625 0.375 0
1.75 0.375 0
1.625 0.375 0
1.75 0.375 0
1.625 0.5 0
1.75 0.5 0
1.5 0.375 0
1.625 0.375 0
1.5 0.5 0
1.625 0.5 0
1.5 0.5 0
1.625 0.5 0
1.5 0.625 0
1.625 0.625 0
1.625 0.5 0
1.75 0.5 0
1.625 0.625 0
1.75 0.625 0
1.625 0.625 0
1.75 0.625 0
1.625 0.75 0
1.75 0.75 0
1.5 0.625 0
1.625 0.625 0
1.5 0.75 0
1.625 0.75 0
1.75 0.5 0
1.875 0.5 0
1.75 0.625 0
1.875 0.625 0
1.875 0.5 0
2 0.5 0
1.875 0.625 0
2 0.625 0
1.875 0.625 0
2 0.625 0
1.875 0.75 0
2 0.75 0
1.75 0.625 0
1.875 0.625 0
1.75 0.75 0
1.875 0.75 0
1.75 0.75 0
1.875 0.75 0
1.75 0.875 0
1.875 0.875 0
1.875 0.75 0
2 0.75 0
1.875 0.875 0
2 0.875 0
1.875 0.875 0
2 0.875 0
1.875 1 0
2 1 0
1.75 0.875 0
1.875 0.875 0
1.75 1 0
1.875 1 0
1.5 0.75 0
1.625 0.75 0
1.5 0.875 0
1.625 0.875 0
1.625 0.75 0
1.75 0.75 0
1.625 0.875 0
1.75 0.875 0
1.625 0.875 0
1.75 0.875 0
1.625 1 0
1.75 1 0
1.5 0.875 0
1.625 0.875 0
1.5 1 0
1.625 1 0
1 0.5 0
1.125 0.5 0
1 0.625 0
1.125 0.625 0
1.125 0.5 0
1.25 0.5 0
1.125 0.625 0
1.25 0.625 0
1.125 0.625 0
1.25 0.625 0
1.125 0.75 0
1.25 0.75 0
1 0.625 0
1.125 0.625 0
1 0.75 0
1.125 0.75 0
1.25 0.5 0
1.375 0.5 0
1.25 0.625 0
1.375 0.625 0
1.375 0.5 0
1.5 0.5 0
1.375 0.625 0
1.5 0.625 0
1.375 0.625 0
1.5 0.625 0
1.375 0.75 0
1.5 0.75 0
1.25 0.625 0
1.375 0.625 0
1.25 0.75 0
1.375 0.75 0
1.25 0.75 0
1.375 0.75 0
1.25 0.875 0
1.375 0.875 0
1.375 0.75 0
1.5 0.75 0
1.375 0.875 0
1.5 0.875 0
1.375 0.875 0
1.5 0.875 0
1.375 1 0
1.5 1 0
1.25 0.875 0
1.375 0.875 0
1.25 1 0
1.375 1 0
1 0.75 0
1.125 0.75 0
1 0.875 0
1.125 0.875 0
1.125 0.75 0
1.25 0.75 0
1.125 0.875 0
1.25 0.875 0
1.125 0.875 0
1.25 0.875 0
1.125 1 0
1.25 1 0
1 0.875 0
1.125 0.875 0
1 1 0
1.125 1 0
2 0 0
2.125 0 0
2 0.125 0
2.125 0.125 0
2.125 0 0
2.25 0 0
2.125 0.125 0
2.25 0.125 0
2.125 0.125 0
2.25 0.125 0
2.125 0.25 0
2.25 0.25 0
2 0.125 0
2.125 0.125 0
2 0.25 0
2.125 0.25 0
2.25 0 0
2.375 0 0
2.25 0.125 0
2.375 0.125 0
2.375 0 0
2.5 0 0
2.375 0.125 0
2.5 0.125 0
2.375 0.125 0
2.5 0.125 0
2.375 0.25 0
2.5 0.25 0
2.25 0.125 0
2.375 0.125 0
2.25 0.25 0
2.375 0.25 0
2.25 0.25 0
2.375 0.25 0
2.25 0.375 0
2.375 0.375 0
2.375 0.25 0
2.5 0.25 0
2.375 0.375 0
2.5 0.375 0
2.375 0.375 0
2.5 0.375 0
2.375 0.5 0
2.5 0.5 0
2.25 0.375 0
2.375 0.375 0
2.25 0.5 0
2.375 0.5 0
2 0.25 0
2.125 0.25 0
2 0.375 0
2.125 0.375 0
2.125 0.25 0
2.25 0.25 0
2.125 0.375 0
2.25 0.375 0
2.125 0.375 0
2.25 0.375 0
2.125 0.5 0
2.25 0.5 0
2 0.375 0
2.125 0.375 0
2 0.5 0
2.125 0.5 0
2.5 0 0
2.625 0 0
2.5 0.125 0
2.625 0.125 0
2.625 0 0
2.75 0 0
2.625 0.125 0
2.75 0.125 0
2.625 0.125 0
2.75 0.125 0
2.625 0.25 0
2.75 0.25 0
2.5 0.125 0
2.625 0.125 0
2.5 0.25 0
2.625 0.25 0
2.75 0 0
2.875 0 0
2.75 0.125 0
2.875 0.125 0
2.875 0 0
3 0 0
2.875 0.125 0
3 0.125 0
2.875 0.125 0
3 0.125 0
2.875 0.25 0
3 0.25 0
2.75 0.125 0
2.875 0.125 0
2.75 0.25 0
2.875 0.25 0
2.75 0.25 0
2.875 0.25 0
2.75 0.375 0
2.875 0.375 0
2.875 0.25 0
3 0.25 0
2.875 0.375 0
3 0.375 0
2.875 0.375 0
3 0.375 0
2.875 0.5 0
3 0.5 0
2.75 0.375 0
2.875 0.375 0
2.75 0.5 0
2.875 0.5 0
2.5 0.25 0
2.625 0.25 0
2.5 0.375 0
2.625 0.375 0
2.625 0.25 0
2.75 0.25 0
2.625 0.375 0
2.75 0.375 0
2.625 0.375 0
2.75 0.375 0
2.625 0.5 0
2.75 0.5 0
2.5 0.375 0
2.625 0.375 0
2.5 0.5 0
2.625 0.5 0
2.5 0.5 0
2.625 0.5 0
2.5 0.625 0
2.625 0.625 0
2.625 0.5 0
2.75 0.5 0
2.625 0.625 0
2.75 0.625 0
2.625 0.625 0
2.75 0.625 0
2.625 0.75 0
2.75 0.75 0
2.5 0.625 0
2.625 0.625 0
2.5 0.75 0
2.625 0.75 0
2.75 0.5 0
2.875 0.5 0
2.75 0.625 0
2.875 0.625 0
2.875 0.5 0
3 0.5 0
2.875 0.625 0
3 0.625 0
2.875 0.625 0
3 0.625 0
2.875 0.75 0
3 0.75 0
2.75 0.625 0
2.875 0.625 0
2.75 0.75 0
2.875 0.75 0
2.75 0.75 0
2.875 0.75 0
2.75 0.875 0
2.875 0.875 0
2.875 0.75 0
3 0.75 0
2.875 0.875 0
3 0.875 0
2.875 0.875 0
3 0.875 0
2.875 1 0
3 1 0
2.75 0.875 0
2.875 0.875 0
2.75 1 0
2.875 1 0
2.5 0.75 0
2.625 0.75 0
2.5 0.875 0
2.625 0.875 0
2.625 0.75 0
2.75 0.75 0
2.625 0.875 0
2.75 0.875 0
2.625 0.875 0
2.75 0.875 0
2.625 1 0
2.75 1 0
2.5 0.875 0
2.625 0.875 0
2.5 1 0
2.625 1 0
2 0.5 0
2.125 0.5 0
2 0.625 0
2.125 0.625 0
2.125 0.5 0
2.25 0.5 0
2.125 0.625 0
2.25 0.625 0
2.125 0.625 0
2.25 0.625 0
2.125 0.75 0
2.25 0.75 0
2 0.625 0
2.125 0.625 0
2 0.75 0
2.125 0.75 0
2.25 0.5 0
2.375 0.5 0
2.25 0.625 0
2.375 0.625 0
2.375 0.5 0
2.5 0.5 0
2.375 0.625 0
2.5 0.625 0
2.375 0.625 0
2.5 0.625 0
2.375 0.75 0
2.5 0.75 0
2.25 0.625 0
2.375 0.625 0
2.25 0.75 0
2.375 0.75 0
2.25 0.75 0
2.375 0.75 0
2.25 0.875 0
2.375 0.875 0
2.375 0.75 0
2.5 0.75 0
2.375 0.875 0
2.5 0.875 0
2.375 0.875 0
2.5 0.875 0
2.375 1 0
2.5 1 0
2.25 0.875 0
2.375 0.875 0
2.25 1 0
2.375 1 0
2 0.75 0
2.125 0.75 0
2 0.875 0
2.125 0.875 0
2.125 0.75 0
2.25 0.75 0
2.125 0.875 0
2.25 0.875 0
2.125 0.875 0
2.25 0.875 0
2.125 1 0
2.25 1 0
2 0.875 0
2.125 0.875 0
2 1 0
2.125 1 0
3 0 0
3.125 0 0
3 0.125 0
3.125 0.125 0
3.125 0 0
3.25 0 0
3.125 0.125 0
3.25 0.125 0
3.125 0.125 0
3.25 0.125 0
3.125 0.25 0
3.25 0.25 0
3 0.125 0
3.125 0.125 0
3 0.25 0
3.125 0.25 0
3.25 0 0
3.375 0 0
3.25 0.125 0
3.375 0.125 0
3.375 0 0
3.5 0 0
3.375 0.125 0
3.5 0.125 0
3.375 0.125 0
3.5 0.125 0
3.375 0.25 0
3.5 0.25 0
3.25 0.125 0
3.375 0.125 0
3.25 0.25 0
3.375 0.25 0
3.25 0.25 0
3.375 0.25 0
3.25 0.375 0
3.375 0.375 0
3.375 0.25 0
3.5 0.25 0
3.375 0.375 0
3.5 0.375 0
3.375 0.375 0
3.5 0.375 0
3.375 0.5 0
3.5 0.5 0
3.25 0.375 0
3.375 0.375 0
3.25 0.5 0
[...]
<CellData Scalars="attribute">
<DataArray type="Int32" Name="attribute" format="ascii">
1
1
1
1
1
1
1
1
1
1
1
1
1
1
1
1
1
1
1
1
1
1
1
1
1
1
1
1
1
1
1
1
1
1
1
1
1
1
1
1
1
1
1
1
1
1
1
1
1
1
1
1
1
1
1
1
1
1
1
1
1
1
1
1
1
1
1
1
1
1
1
1
1
1
1
1
1
1
1
1
1
1
1
1
1
1
1
1
1
1
1
1
1
1
1
1
1
1
1
1
1
1
1
1
1
1
1
1
1
1
1
1
1
1
1
1
1
1
1
1
1
1
1
1
1
1
1
1
1
1
1
1
1
1
1
1
1
1
1
1
1
1
1
1
1
1
1
1
1
1
1
1
1
1
1
1
1
1
1
1
1
1
1
1
1
1
1
1
1
1
1
1
1
1
1
1
1
1
1
1
1
1
1
1
1
1
1
1
1
1
1
1
1
1
1
1
1
1
1
1
1
1
1
1
1
1
1
1
1
1
1
1
1
1
1
1
1
1
1
1
1
1
1
1
1
1
1
1
1
1
1
1
1
1
1
1
1
1
1
1
1
1
1
1
1
1
1
1
1
1
1
1
1
1
1
1
2
2
2
2
2
2
2
2
2
2
2
2
2
2
2
2
2
2
2
2
2
2
2
2
2
2
2
2
2
2
2
2
2
2
2
2
2
2
2
2
2
2
2
2
2
2
2
2
2
2
2
2
2
2
2
2
2
2
2
2
2
2
2
2
2
2
2
2
2
2
2
2
2
2
2
2
2
2
2
2
2
2
2
2
2
2
2
2
2
2
2
2
2
2
2
2
2
2
2
2
2
2
2
2
2
2
2
2
2
2
2
2
2
2
2
2
2
2
2
2
2
2
2
2
2
2
2
2
2
2
2
2
2
2
2
2
2
2
2
2
2
2
2
2
2
2
2
2
2
2
2
2
2
2
2
2
2
2
2
2
2
2
2
2
2
2
2
2
2
2
2
2
2
2
2
2
2
2
2
2
2
2
2
2
2
2
2
2
2
2
2
2
2
2
2
2
2
2
2
2
2
2
2
2
2
2
2
2
2
2
2
2
2
2
2
2
2
2
2
2
2
2
2
2
2
2
2
2
2
2
2
2
2
2
2
2
2
2
2
2
2
2
2
2
2
2
2
2
2
2
2
2
2
2
2
2
</DataArray>
</CellData>
<PointData >
<DataArray type="Float64" Name="Pressure" NumberOfComponents="1" format="ascii" >
-0.000622341
-1.08421e-06
-0.00101841
-1.79479e-06
-1.08421e-06
7.50991e-11
-1.79479e-06
1.30056e-10
-1.79479e-06
1.30056e-10
-1.20493e-06
8.83192e-11
-0.00101841
-1.79479e-06
-0.000678951
-1.20493e-06
7.50991e-11
-3.28698e-15
1.30056e-10
-5.86906e-15
-3.28698e-15
1.45853e-19
-5.86906e-15
2.70011e-19
-5.86906e-15
2.70011e-19
-4.08672e-15
1.9311e-19
1.30056e-10
-5.86906e-15
8.83192e-11
-4.08672e-15
8.83192e-11
-4.08672e-15
4.52609e-11
-2.08828e-15
-4.08672e-15
1.9311e-19
-2.08828e-15
9.87819e-20
-2.08828e-15
9.87819e-20
-6.91509e-17
3.13432e-21
4.52609e-11
-2.08828e-15
1.59652e-12
-6.91509e-17
-0.000678951
-1.20493e-06
-0.000339487
-6.11858e-07
-1.20493e-06
8.83192e-11
-6.11858e-07
4.52609e-11
-6.11858e-07
4.52609e-11
-1.35525e-08
1.59652e-12
-0.000339487
-6.11858e-07
-1.66747e-08
-1.35525e-08
1.45853e-19
-3.35532e-24
2.70011e-19
-6.43808e-24
-3.35532e-24
1.34141e-28
-6.43808e-24
2.58791e-28
-6.43808e-24
2.58791e-28
-4.76989e-24
1.94469e-28
2.70011e-19
-6.43808e-24
1.9311e-19
-4.76989e-24
1.34141e-28
-1.3056e-33
2.58791e-28
-2.77836e-33
-1.3056e-33
8.04216e-38
-2.77836e-33
1.57465e-37
-2.77836e-33
1.57465e-37
-2.24709e-33
1.21941e-37
2.58791e-28
-2.77836e-33
1.94469e-28
-2.24709e-33
1.94469e-28
-2.24709e-33
1.01103e-28
-1.1849e-33
-2.24709e-33
1.21941e-37
-1.1849e-33
6.47585e-38
-1.1849e-33
6.47585e-38
-3.41723e-35
1.64888e-39
1.01103e-28
-1.1849e-33
2.9002e-30
-3.41723e-35
1.9311e-19
-4.76989e-24
9.87819e-20
-2.45496e-24
-4.76989e-24
1.94469e-28
-2.45496e-24
1.01103e-28
-2.45496e-24
1.01103e-28
-7.49979e-26
2.9002e-30
9.87819e-20
-2.45496e-24
3.13432e-21
-7.49979e-26
3.13432e-21
-7.49979e-26
-9.38476e-20
2.33807e-24
-7.49979e-26
2.9002e-30
2.33807e-24
-9.66788e-29
2.33807e-24
-9.66788e-29
4.75279e-24
-1.93955e-28
-9.38476e-20
2.33807e-24
-1.92202e-19
4.75279e-24
2.9002e-30
-3.41723e-35
-9.66788e-29
1.13312e-33
-3.41723e-35
1.64888e-39
1.13312e-33
-6.23139e-38
1.13312e-33
-6.23139e-38
2.24102e-33
-1.21743e-37
-9.66788e-29
1.13312e-33
-1.93955e-28
2.24102e-33
-1.93955e-28
2.24102e-33
-2.62922e-28
2.8207e-33
2.24102e-33
-1.21743e-37
2.8207e-33
-1.59669e-37
2.8207e-33
-1.59669e-37
1.33411e-33
-8.19784e-38
-2.62922e-28
2.8207e-33
-1.3716e-28
1.33411e-33
-1.92202e-19
4.75279e-24
-2.74826e-19
6.5477e-24
4.75279e-24
-1.93955e-28
6.5477e-24
-2.62922e-28
6.5477e-24
-2.62922e-28
3.43678e-24
-1.3716e-28
-2.74826e-19
6.5477e-24
-1.49689e-19
3.43678e-24
-1.66747e-08
-1.35525e-08
0.00033946
5.89986e-07
-1.35525e-08
1.59652e-12
5.89986e-07
-4.269e-11
5.89986e-07
-4.269e-11
1.19876e-06
-8.76128e-11
0.00033946
5.89986e-07
0.000678944
1.19876e-06
1.59652e-12
-6.91509e-17
-4.269e-11
1.97804e-15
-6.91509e-17
3.13432e-21
1.97804e-15
-9.38476e-20
1.97804e-15
-9.38476e-20
4.06108e-15
-1.92202e-19
-4.269e-11
1.97804e-15
-8.76128e-11
4.06108e-15
-8.76128e-11
4.06108e-15
-1.32464e-10
5.97832e-15
4.06108e-15
-1.92202e-19
5.97832e-15
-2.74826e-19
5.97832e-15
-2.74826e-19
3.37998e-15
-1.49689e-19
-1.32464e-10
5.97832e-15
-7.75649e-11
3.37998e-15
0.000678944
1.19876e-06
0.00101844
1.81499e-06
1.19876e-06
-8.76128e-11
1.81499e-06
-1.32464e-10
1.81499e-06
-1.32464e-10
1.10561e-06
-7.75649e-11
0.00101844
1.81499e-06
0.000622367
1.10561e-06
8.04216e-38
1.3568e-43
1.57465e-37
5.29101e-44
1.3568e-43
3.79441e-47
5.29101e-44
7.36292e-47
5.29101e-44
7.36292e-47
-8.29872e-44
5.74616e-47
1.57465e-37
5.29101e-44
1.21941e-37
-8.29872e-44
3.79441e-47
3.89411e-52
7.36292e-47
6.59197e-52
3.89411e-52
1.50542e-56
6.59197e-52
2.86863e-56
6.59197e-52
2.86863e-56
4.55105e-52
2.22656e-56
7.36292e-47
6.59197e-52
5.74616e-47
4.55105e-52
5.74616e-47
4.55105e-52
3.09688e-47
2.37236e-52
4.55105e-52
2.22656e-56
2.37236e-52
1.20726e-56
2.37236e-52
1.20726e-56
3.99046e-54
2.29623e-58
3.09688e-47
2.37236e-52
6.86074e-49
3.99046e-54
1.21941e-37
-8.29872e-44
6.47585e-38
-5.68746e-44
-8.29872e-44
5.74616e-47
-5.68746e-44
3.09688e-47
-5.68746e-44
3.09688e-47
-3.27211e-45
6.86074e-49
6.47585e-38
-5.68746e-44
1.64888e-39
-3.27211e-45
1.50542e-56
2.16903e-61
2.86863e-56
3.8884e-61
2.16903e-61
4.93599e-66
3.8884e-61
9.27064e-66
3.8884e-61
9.27064e-66
2.85698e-61
7.14625e-66
2.86863e-56
3.8884e-61
2.22656e-56
2.85698e-61
4.93599e-66
7.4831e-71
9.27064e-66
1.36638e-70
7.4831e-71
1.30286e-75
1.36638e-70
2.4269e-75
1.36638e-70
2.4269e-75
1.02644e-70
1.86364e-75
9.27064e-66
1.36638e-70
7.14625e-66
1.02644e-70
7.14625e-66
1.02644e-70
3.88007e-66
5.51855e-71
1.02644e-70
1.86364e-75
5.51855e-71
1.01209e-75
5.51855e-71
1.01209e-75
7.9372e-73
1.41767e-77
3.88007e-66
5.51855e-71
6.32044e-68
7.9372e-73
2.22656e-56
2.85698e-61
1.20726e-56
1.52127e-61
2.85698e-61
7.14625e-66
1.52127e-61
3.88007e-66
1.52127e-61
3.88007e-66
2.4447e-63
6.32044e-68
1.20726e-56
1.52127e-61
2.29623e-58
2.4447e-63
2.29623e-58
2.4447e-63
-1.17421e-56
-1.48668e-61
2.4447e-63
6.32044e-68
-1.48668e-61
-3.78974e-66
-1.48668e-61
-3.78974e-66
-2.85791e-61
-7.14376e-66
-1.17421e-56
-1.48668e-61
-2.22516e-56
-2.85791e-61
6.32044e-68
7.9372e-73
-3.78974e-66
-5.4063e-71
7.9372e-73
1.41767e-77
-5.4063e-71
-9.91916e-76
-5.4063e-71
-9.91916e-76
-1.0266e-70
-1.86331e-75
-3.78974e-66
-5.4063e-71
-7.14376e-66
-1.0266e-70
-7.14376e-66
-1.0266e-70
-9.35593e-66
-1.37821e-70
-1.0266e-70
-1.86331e-75
-1.37821e-70
-2.44639e-75
-1.37821e-70
-2.44639e-75
-7.56741e-71
-1.31668e-75
-9.35593e-66
-1.37821e-70
-4.99642e-66
-7.56741e-71
-2.22516e-56
-2.85791e-61
-2.89892e-56
-3.92696e-61
-2.85791e-61
-7.14376e-66
-3.92696e-61
-9.35593e-66
-3.92696e-61
-9.35593e-66
-2.19685e-61
-4.99642e-66
-2.89892e-56
-3.92696e-61
-1.5268e-56
-2.19685e-61
1.64888e-39
-3.27211e-45
-6.23139e-38
5.17512e-44
-3.27211e-45
6.86074e-49
5.17512e-44
-2.99702e-47
5.17512e-44
-2.99702e-47
8.1339e-44
-5.74021e-47
-6.23139e-38
5.17512e-44
-1.21743e-37
8.1339e-44
6.86074e-49
3.99046e-54
-2.99702e-47
-2.31616e-52
3.99046e-54
2.29623e-58
-2.31616e-52
-1.17421e-56
-2.31616e-52
-1.17421e-56
-4.55524e-52
-2.22516e-56
-2.99702e-47
-2.31616e-52
-5.74021e-47
-4.55524e-52
-5.74021e-47
-4.55524e-52
-7.45245e-47
-6.66636e-52
-4.55524e-52
-2.22516e-56
-6.66636e-52
-2.89892e-56
-6.66636e-52
-2.89892e-56
-3.94995e-52
-1.5268e-56
-7.45245e-47
-6.66636e-52
-3.85731e-47
-3.94995e-52
-1.21743e-37
8.1339e-44
-1.59669e-37
-5.32318e-44
8.1339e-44
-5.74021e-47
-5.32318e-44
-7.45245e-47
-5.32318e-44
-7.45245e-47
-1.37039e-43
-3.85731e-47
-1.59669e-37
-5.32318e-44
-8.19784e-38
-1.37039e-43
1.30286e-75
1.87473e-80
2.4269e-75
3.44838e-80
1.87473e-80
2.74971e-85
3.44838e-80
5.10115e-85
3.44838e-80
5.10115e-85
2.61794e-80
3.91257e-85
2.4269e-75
3.44838e-80
1.86364e-75
2.61794e-80
2.74971e-85
3.62823e-90
5.10115e-85
6.69379e-90
3.62823e-90
4.67355e-95
6.69379e-90
8.65309e-95
6.69379e-90
8.65309e-95
5.11004e-90
6.63786e-95
5.10115e-85
6.69379e-90
3.91257e-85
5.11004e-90
3.91257e-85
5.11004e-90
2.12527e-85
2.76975e-90
5.11004e-90
6.63786e-95
2.76975e-90
3.60676e-95
2.76975e-90
3.60676e-95
3.08009e-92
3.78938e-97
2.12527e-85
2.76975e-90
2.57305e-87
3.08009e-92
1.86364e-75
2.61794e-80
1.01209e-75
1.41488e-80
2.61794e-80
3.91257e-85
1.41488e-80
2.12527e-85
1.41488e-80
2.12527e-85
1.79437e-82
2.57305e-87
1.01209e-75
1.41488e-80
1.41767e-77
1.79437e-82
4.67355e-95
5.60832e-100
8.65309e-95
1.03586e-99
5.60832e-100
6.47652e-105
1.03586e-99
1.19792e-104
1.03586e-99
1.19792e-104
7.93239e-100
9.19507e-105
8.65309e-95
1.03586e-99
6.63786e-95
7.93239e-100
6.47652e-105
7.0764e-110
1.19792e-104
1.30742e-109
7.0764e-110
7.41402e-115
1.30742e-109
1.37049e-114
1.30742e-109
1.37049e-114
1.00306e-109
1.05271e-114
1.19792e-104
1.30742e-109
9.19507e-105
1.00306e-109
9.19507e-105
1.00306e-109
4.99773e-105
5.44997e-110
1.00306e-109
1.05271e-114
5.44997e-110
5.72296e-115
5.44997e-110
5.72296e-115
4.63399e-112
4.56062e-117
4.99773e-105
5.44997e-110
4.56895e-107
4.63399e-112
6.63786e-95
7.93239e-100
3.60676e-95
4.30632e-100
7.93239e-100
9.19507e-105
4.30632e-100
4.99773e-105
4.30632e-100
4.99773e-105
4.18936e-102
4.56895e-107
3.60676e-95
4.30632e-100
3.78938e-97
4.18936e-102
3.78938e-97
4.18936e-102
-3.55307e-95
-4.24709e-100
4.18936e-102
4.56895e-107
-4.24709e-100
-4.93305e-105
-4.24709e-100
-4.93305e-105
-7.93249e-100
-9.19482e-105
-3.55307e-95
-4.24709e-100
-6.63757e-95
-7.93249e-100
4.56895e-107
4.63399e-112
-4.93305e-105
-5.38443e-110
4.63399e-112
4.56062e-117
-5.38443e-110
-5.65841e-115
-5.38443e-110
-5.65841e-115
-1.00305e-109
-1.05269e-114
-4.93305e-105
-5.38443e-110
-9.19482e-105
-1.00305e-109
-9.19482e-105
-1.00305e-109
-1.20432e-104
-1.31396e-109
-1.00305e-109
-1.05269e-114
-1.31396e-109
-1.37688e-114
-1.31396e-109
-1.37688e-114
-7.12265e-110
-7.45926e-115
-1.20432e-104
-1.31396e-109
-6.52187e-105
-7.12265e-110
-6.63757e-95
-7.93249e-100
-8.70607e-95
-1.0418e-99
-7.93249e-100
-9.19482e-105
-1.0418e-99
-1.20432e-104
-1.0418e-99
-1.20432e-104
-5.65036e-100
-6.52187e-105
-8.70607e-95
-1.0418e-99
-4.71109e-95
-5.65036e-100
1.41767e-77
1.79437e-82
-9.91916e-76
-1.38951e-80
1.79437e-82
2.57305e-87
-1.38951e-80
-2.08876e-85
-1.38951e-80
-2.08876e-85
-2.61814e-80
-3.91223e-85
-9.91916e-76
-1.38951e-80
-1.86331e-75
-2.61814e-80
2.57305e-87
3.08009e-92
-2.08876e-85
-2.7262e-90
3.08009e-92
3.78938e-97
-2.7262e-90
-3.55307e-95
-2.7262e-90
-3.55307e-95
-5.11022e-90
-6.63757e-95
-2.08876e-85
-2.7262e-90
-3.91223e-85
-5.11022e-90
-3.91223e-85
-5.11022e-90
-5.13691e-85
-6.73782e-90
-5.11022e-90
-6.63757e-95
-6.73782e-90
-8.70607e-95
-6.73782e-90
-8.70607e-95
-3.65941e-90
-4.71109e-95
-5.13691e-85
-6.73782e-90
-2.77508e-85
-3.65941e-90
-1.86331e-75
-2.61814e-80
-2.44639e-75
-3.47441e-80
-2.61814e-80
-3.91223e-85
-3.47441e-80
-5.13691e-85
-3.47441e-80
-5.13691e-85
-1.8932e-80
-2.77508e-85
-2.44639e-75
-3.47441e-80
-1.31668e-75
-1.8932e-80
7.41402e-115
7.40643e-120
1.37049e-114
1.36834e-119
7.40643e-120
7.09662e-125
1.36834e-119
1.31125e-124
1.36834e-119
1.31125e-124
1.05102e-119
1.00785e-124
1.37049e-114
1.36834e-119
1.05271e-114
1.05102e-119
7.09662e-125
6.51264e-130
1.31125e-124
1.20297e-129
6.51264e-130
5.74129e-135
1.20297e-129
1.06045e-134
1.20297e-129
1.06045e-134
9.24734e-130
8.155e-135
1.31125e-124
1.20297e-129
1.00785e-124
9.24734e-130
1.00785e-124
9.24734e-130
5.4797e-125
5.02752e-130
9.24734e-130
8.155e-135
5.02752e-130
4.43406e-135
5.02752e-130
4.43406e-135
3.26438e-132
2.69346e-137
5.4797e-125
5.02752e-130
3.81093e-127
3.26438e-132
1.05271e-114
1.05102e-119
5.72296e-115
5.71303e-120
1.05102e-119
1.00785e-124
5.71303e-120
5.4797e-125
5.71303e-120
5.4797e-125
4.2447e-122
3.81093e-127
5.72296e-115
5.71303e-120
4.56062e-117
4.2447e-122
5.74129e-135
4.86232e-140
1.06045e-134
8.97912e-140
4.86232e-140
3.96287e-145
8.97912e-140
7.31742e-145
8.97912e-140
7.31742e-145
6.90611e-140
5.62948e-145
1.06045e-134
8.97912e-140
8.155e-135
6.90611e-140
3.96287e-145
3.11001e-150
7.31742e-145
5.74167e-150
3.11001e-150
2.35295e-155
5.74167e-150
4.3435e-155
5.74167e-150
4.3435e-155
4.41786e-150
3.34264e-155
7.31742e-145
5.74167e-150
5.62948e-145
4.41786e-150
5.62948e-145
4.41786e-150
3.0608e-145
2.40193e-150
4.41786e-150
3.34264e-155
2.40193e-150
1.81731e-155
2.40193e-150
1.81731e-155
1.19215e-152
8.43736e-158
3.0608e-145
2.40193e-150
1.62502e-147
1.19215e-152
8.155e-135
6.90611e-140
4.43406e-135
3.75485e-140
6.90611e-140
5.62948e-145
3.75485e-140
3.0608e-145
3.75485e-140
3.0608e-145
2.13121e-142
1.62502e-147
4.43406e-135
3.75485e-140
2.69346e-137
2.13121e-142
2.69346e-137
2.13121e-142
-4.39592e-135
-3.72467e-140
2.13121e-142
1.62502e-147
-3.72467e-140
-3.03778e-145
-3.72467e-140
-3.03778e-145
-6.90593e-140
-5.62932e-145
-4.39592e-135
-3.72467e-140
-8.1548e-135
-6.90593e-140
1.62502e-147
1.19215e-152
-3.03778e-145
-2.38503e-150
1.19215e-152
8.43736e-158
-2.38503e-150
-1.80535e-155
-2.38503e-150
-1.80535e-155
-4.41773e-150
-3.34253e-155
-3.03778e-145
-2.38503e-150
-5.62932e-145
-4.41773e-150
-5.62932e-145
-4.41773e-150
-7.34003e-145
-5.75824e-150
-4.41773e-150
-3.34253e-155
-5.75824e-150
-4.3552e-155
-5.75824e-150
-4.3552e-155
-3.12174e-150
-2.36124e-155
-7.34003e-145
-5.75824e-150
-3.97888e-145
-3.12174e-150
-8.1548e-135
-6.90593e-140
-1.06421e-134
-9.00884e-140
-6.90593e-140
-5.62932e-145
-9.00884e-140
-7.34003e-145
-9.00884e-140
-7.34003e-145
-4.88337e-140
-3.97888e-145
-1.06421e-134
-9.00884e-140
-5.76791e-135
-4.88337e-140
4.56062e-117
4.2447e-122
-5.65841e-115
-5.65297e-120
4.2447e-122
3.81093e-127
-5.65297e-120
-5.42575e-125
-5.65297e-120
-5.42575e-125
-1.05101e-119
-1.00782e-124
-5.65841e-115
-5.65297e-120
-1.05269e-114
-1.05101e-119
3.81093e-127
3.26438e-132
-5.42575e-125
-4.98131e-130
3.26438e-132
2.69346e-137
-4.98131e-130
-4.39592e-135
-4.98131e-130
-4.39592e-135
-9.24716e-130
-8.1548e-135
-5.42575e-125
-4.98131e-130
-1.00782e-124
-9.24716e-130
-1.00782e-124
-9.24716e-130
-1.31658e-124
-1.20754e-129
-9.24716e-130
-8.1548e-135
-1.20754e-129
-1.06421e-134
-1.20754e-129
-1.06421e-134
-6.54499e-130
-5.76791e-135
-1.31658e-124
-1.20754e-129
-7.13437e-125
-6.54499e-130
-1.05269e-114
-1.05101e-119
-1.37688e-114
-1.3743e-119
-1.05101e-119
-1.00782e-124
-1.3743e-119
-1.31658e-124
-1.3743e-119
-1.31658e-124
-7.44863e-120
-7.13437e-125
-1.37688e-114
-1.3743e-119
-7.45926e-115
-7.44863e-120
2.35295e-155
1.71739e-160
4.3435e-155
3.16984e-160
1.71739e-160
1.2104e-165
3.16984e-160
2.2338e-165
3.16984e-160
2.2338e-165
2.43972e-160
1.71951e-165
4.3435e-155
3.16984e-160
3.34264e-155
2.43972e-160
1.2104e-165
8.24311e-171
2.2338e-165
1.52109e-170
8.24311e-171
5.42855e-176
1.52109e-170
1.00162e-175
1.52109e-170
1.00162e-175
1.171e-170
7.71163e-176
2.2338e-165
1.52109e-170
1.71951e-165
1.171e-170
1.71951e-165
1.171e-170
9.34772e-166
6.36557e-171
1.171e-170
7.71163e-176
6.36557e-171
4.19185e-176
6.36557e-171
4.19185e-176
2.41899e-173
1.49056e-178
9.34772e-166
6.36557e-171
3.79715e-168
2.41899e-173
3.34264e-155
2.43972e-160
1.81731e-155
1.32635e-160
2.43972e-160
1.71951e-165
1.32635e-160
9.34772e-166
1.32635e-160
9.34772e-166
5.759e-163
3.79715e-168
1.81731e-155
1.32635e-160
8.43736e-158
5.759e-163
5.42855e-176
3.45929e-181
1.00162e-175
6.38202e-181
3.45929e-181
2.13442e-186
6.38202e-181
3.93738e-186
6.38202e-181
3.93738e-186
4.91403e-181
3.03194e-186
1.00162e-175
6.38202e-181
7.71163e-176
4.91403e-181
2.13442e-186
1.27589e-191
3.93738e-186
2.35343e-191
1.27589e-191
7.39323e-197
2.35343e-191
1.36358e-196
2.35343e-191
1.36358e-196
1.81235e-191
1.05014e-196
3.93738e-186
2.35343e-191
3.03194e-186
1.81235e-191
3.03194e-186
1.81235e-191
1.64792e-186
9.84998e-192
1.81235e-191
1.05014e-196
9.84998e-192
5.70718e-197
9.84998e-192
5.70718e-197
2.87138e-194
1.55756e-199
1.64792e-186
9.84998e-192
5.13213e-189
2.87138e-194
7.71163e-176
4.91403e-181
4.19185e-176
2.67101e-181
4.91403e-181
3.03194e-186
2.67101e-181
1.64792e-186
2.67101e-181
1.64792e-186
8.88765e-184
5.13213e-189
4.19185e-176
2.67101e-181
1.49056e-178
8.88765e-184
1.49056e-178
8.88765e-184
-4.17068e-176
-2.65838e-181
8.88765e-184
5.13213e-189
-2.65838e-181
-1.64062e-186
-2.65838e-181
-1.64062e-186
-4.91383e-181
-3.03181e-186
-4.17068e-176
-2.65838e-181
-7.71132e-176
-4.91383e-181
5.13213e-189
2.87138e-194
-1.64062e-186
-9.80915e-192
2.87138e-194
1.55756e-199
-9.80915e-192
-5.68502e-197
-9.80915e-192
-5.68502e-197
-1.81227e-191
-1.0501e-196
-1.64062e-186
-9.80915e-192
-3.03181e-186
-1.81227e-191
-3.03181e-186
-1.81227e-191
-3.9444e-186
-2.35734e-191
-1.81227e-191
-1.0501e-196
-2.35734e-191
-1.3657e-196
-2.35734e-191
-1.3657e-196
-1.27867e-191
-7.40822e-197
-3.9444e-186
-2.35734e-191
-2.13939e-186
-1.27867e-191
-7.71132e-176
-4.91383e-181
-1.00367e-175
-6.39421e-181
-4.91383e-181
-3.03181e-186
-6.39421e-181
-3.9444e-186
-6.39421e-181
-3.9444e-186
-3.46793e-181
-2.13939e-186
-1.00367e-175
-6.39421e-181
-5.44307e-176
-3.46793e-181
8.43736e-158
5.759e-163
-1.80535e-155
-1.31818e-160
5.759e-163
3.79715e-168
-1.31818e-160
-9.29385e-166
-1.31818e-160
-9.29385e-166
-2.43964e-160
-1.71944e-165
-1.80535e-155
-1.31818e-160
-3.34253e-155
-2.43964e-160
3.79715e-168
2.41899e-173
-9.29385e-166
-6.33124e-171
2.41899e-173
1.49056e-178
-6.33124e-171
-4.17068e-176
-6.33124e-171
-4.17068e-176
-1.17096e-170
-7.71132e-176
-9.29385e-166
-6.33124e-171
-1.71944e-165
-1.17096e-170
-1.71944e-165
-1.17096e-170
-2.23905e-165
-1.52443e-170
-1.17096e-170
-7.71132e-176
-1.52443e-170
-1.00367e-175
-1.52443e-170
-1.00367e-175
-8.26672e-171
-5.44307e-176
-2.23905e-165
-1.52443e-170
-1.21411e-165
-8.26672e-171
-3.34253e-155
-2.43964e-160
-4.3552e-155
-3.17781e-160
-2.43964e-160
-1.71944e-165
-3.17781e-160
-2.23905e-165
-3.17781e-160
-2.23905e-165
-1.72304e-160
-1.21411e-165
-4.3552e-155
-3.17781e-160
-2.36124e-155
-1.72304e-160
7.39323e-197
4.15493e-202
1.36358e-196
7.66257e-202
4.15493e-202
2.26579e-207
7.66257e-202
4.17825e-207
7.66257e-202
4.17825e-207
5.90154e-202
3.21816e-207
1.36358e-196
7.66257e-202
1.05014e-196
5.90154e-202
2.26579e-207
1.1995e-212
4.17825e-207
2.21178e-212
1.1995e-212
6.16728e-218
2.21178e-212
1.13712e-217
2.21178e-212
1.13712e-217
1.70362e-212
8.75901e-218
4.17825e-207
2.21178e-212
3.21816e-207
1.70362e-212
3.21816e-207
1.70362e-212
1.7488e-207
9.25734e-213
1.70362e-212
8.75901e-218
9.25734e-213
4.75937e-218
9.25734e-213
4.75937e-218
2.07492e-215
9.9934e-221
1.7488e-207
9.25734e-213
4.18491e-210
2.07492e-215
1.05014e-196
5.90154e-202
5.70718e-197
3.20714e-202
5.90154e-202
3.21816e-207
3.20714e-202
1.7488e-207
3.20714e-202
1.7488e-207
8.1953e-205
4.18491e-210
5.70718e-197
3.20714e-202
1.55756e-199
8.1953e-205
6.16728e-218
3.08092e-223
1.13712e-217
5.68019e-223
3.08092e-223
1.49598e-228
5.68019e-223
2.75791e-228
5.68019e-223
2.75791e-228
4.37551e-223
2.12452e-228
1.13712e-217
5.68019e-223
8.75901e-218
4.37551e-223
1.49598e-228
7.06293e-234
2.75791e-228
1.30201e-233
7.06293e-234
3.24345e-239
1.30201e-233
5.9788e-239
1.30201e-233
5.9788e-239
1.00302e-233
4.60595e-239
2.75791e-228
1.30201e-233
2.12452e-228
1.00302e-233
2.12452e-228
1.00302e-233
1.1543e-228
5.44944e-234
1.00302e-233
4.60595e-239
5.44944e-234
2.50235e-239
5.44944e-234
2.50235e-239
9.41812e-237
4.05473e-242
1.1543e-228
5.44944e-234
2.12827e-231
9.41812e-237
8.75901e-218
4.37551e-223
4.75937e-218
2.37741e-223
4.37551e-223
2.12452e-228
2.37741e-223
1.1543e-228
2.37741e-223
1.1543e-228
4.67731e-226
2.12827e-231
4.75937e-218
2.37741e-223
9.9934e-221
4.67731e-226
9.9934e-221
4.67731e-226
-4.74511e-218
-2.37073e-223
4.67731e-226
2.12827e-231
-2.37073e-223
-1.15126e-228
-2.37073e-223
-1.15126e-228
-4.37529e-223
-2.12441e-228
-4.74511e-218
-2.37073e-223
-8.75858e-218
-4.37529e-223
2.12827e-231
9.41812e-237
-1.15126e-228
-5.43596e-234
9.41812e-237
4.05473e-242
-5.43596e-234
-2.49654e-239
-5.43596e-234
-2.49654e-239
-1.00297e-233
-4.60571e-239
-1.15126e-228
-5.43596e-234
-2.12441e-228
-1.00297e-233
-2.12441e-228
-1.00297e-233
-2.76074e-228
-1.30326e-233
-1.00297e-233
-4.60571e-239
-1.30326e-233
-5.98412e-239
-1.30326e-233
-5.98412e-239
-7.07173e-234
-3.24722e-239
-2.76074e-228
-1.30326e-233
-1.49798e-228
-7.07173e-234
-8.75858e-218
-4.37529e-223
-1.13846e-217