<VTKFile type="UnstructuredGrid" version="0.1" byte_order="LittleEndian">
<UnstructuredGrid>
<Piece NumberOfPoints="2048" NumberOfCells="512">
<Points>
<DataArray type="Float64" NumberOfComponents="3" format="ascii">
0 0 0
0.125 0 0
0 0.125 0
0.125 0.125 0
0.125 0 0
0.25 0 0
0.125 0.125 0
0.25 0.125 0
0.125 0.125 0
0.25 0.125 0
0.125 0.25 0
0.25 0.25 0
0 0.125 0
0.125 0.125 0
0 0.25 0
0.125 0.25 0
0.25 0 0
0.375 0 0
0.25 0.125 0
0.375 0.125 0
0.375 0 0
0.5 0 0
0.375 0.125 0
0.5 0.125 0
0.375 0.125 0
0.5 0.125 0
0.375 0.25 0
0.5 0.25 0
0.25 0.125 0
0.375 0.125 0
0.25 0.25 0
0.375 0.25 0
0.25 0.25 0
0.375 0.25 0
0.25 0.375 0
0.375 0.375 0
0.375 0.25 0
0.5 0.25 0
0.375 0.375 0
0.5 0.375 0
0.375 0.375 0
0.5 0.375 0
0.375 0.5 0
0.5 0.5 0
0.25 0.375 0
0.375 0.375 0
0.25 0.5 0
0.375 0.5 0
0 0.25 0
0.125 0.25 0
0 0.375 0
0.125 0.375 0
0.125 0.25 0
0.25 0.25 0
0.125 0.375 0
0.25 0.375 0
0.125 0.375 0
0.25 0.375 0
0.125 0.5 0
0.25 0.5 0
0 0.375 0
0.125 0.375 0
0 0.5 0
0.125 0.5 0
0.5 0 0
0.625 0 0
0.5 0.125 0
0.625 0.125 0
0.625 0 0
0.75 0 0
0.625 0.125 0
0.75 0.125 0
0.625 0.125 0
0.75 0.125 0
0.625 0.25 0
0.75 0.25 0
0.5 0.125 0
0.625 0.125 0
0.5 0.25 0
0.625 0.25 0
0.75 0 0
0.875 0 0
0.75 0.125 0
0.875 0.125 0
0.875 0 0
1 0 0
0.875 0.125 0
1 0.125 0
0.875 0.125 0
1 0.125 0
0.875 0.25 0
1 0.25 0
0.75 0.125 0
0.875 0.125 0
0.75 0.25 0
0.875 0.25 0
0.75 0.25 0
0.875 0.25 0
0.75 0.375 0
0.875 0.375 0
0.875 0.25 0
1 0.25 0
0.875 0.375 0
1 0.375 0
0.875 0.375 0
1 0.375 0
0.875 0.5 0
1 0.5 0
0.75 0.375 0
0.875 0.375 0
0.75 0.5 0
0.875 0.5 0
0.5 0.25 0
0.625 0.25 0
0.5 0.375 0
0.625 0.375 0
0.625 0.25 0
0.75 0.25 0
0.625 0.375 0
0.75 0.375 0
0.625 0.375 0
0.75 0.375 0
0.625 0.5 0
0.75 0.5 0
0.5 0.375 0
0.625 0.375 0
0.5 0.5 0
0.625 0.5 0
0.5 0.5 0
0.625 0.5 0
0.5 0.625 0
0.625 0.625 0
0.625 0.5 0
0.75 0.5 0
0.625 0.625 0
0.75 0.625 0
0.625 0.625 0
0.75 0.625 0
0.625 0.75 0
0.75 0.75 0
0.5 0.625 0
0.625 0.625 0
0.5 0.75 0
0.625 0.75 0
0.75 0.5 0
0.875 0.5 0
0.75 0.625 0
0.875 0.625 0
0.875 0.5 0
1 0.5 0
0.875 0.625 0
1 0.625 0
0.875 0.625 0
1 0.625 0
0.875 0.75 0
1 0.75 0
0.75 0.625 0
0.875 0.625 0
0.75 0.75 0
0.875 0.75 0
0.75 0.75 0
0.875 0.75 0
0.75 0.875 0
0.875 0.875 0
0.875 0.75 0
1 0.75 0
0.875 0.875 0
1 0.875 0
0.875 0.875 0
1 0.875 0
0.875 1 0
1 1 0
0.75 0.875 0
0.875 0.875 0
0.75 1 0
0.875 1 0
0.5 0.75 0
0.625 0.75 0
0.5 0.875 0
0.625 0.875 0
0.625 0.75 0
0.75 0.75 0
0.625 0.875 0
0.75 0.875 0
0.625 0.875 0
0.75 0.875 0
0.625 1 0
0.75 1 0
0.5 0.875 0
0.625 0.875 0
0.5 1 0
0.625 1 0
0 0.5 0
0.125 0.5 0
0 0.625 0
0.125 0.625 0
0.125 0.5 0
0.25 0.5 0
0.125 0.625 0
0.25 0.625 0
0.125 0.625 0
0.25 0.625 0
0.125 0.75 0
0.25 0.75 0
0 0.625 0
0.125 0.625 0
0 0.75 0
0.125 0.75 0
0.25 0.5 0
0.375 0.5 0
0.25 0.625 0
0.375 0.625 0
0.375 0.5 0
0.5 0.5 0
0.375 0.625 0
0.5 0.625 0
0.375 0.625 0
0.5 0.625 0
0.375 0.75 0
0.5 0.75 0
0.25 0.625 0
0.375 0.625 0
0.25 0.75 0
0.375 0.75 0
0.25 0.75 0
0.375 0.75 0
0.25 0.875 0
0.375 0.875 0
0.375 0.75 0
0.5 0.75 0
0.375 0.875 0
0.5 0.875 0
0.375 0.875 0
0.5 0.875 0
0.375 1 0
0.5 1 0
0.25 0.875 0
0.375 0.875 0
0.25 1 0
0.375 1 0
0 0.75 0
0.125 0.75 0
0 0.875 0
0.125 0.875 0
0.125 0.75 0
0.25 0.75 0
0.125 0.875 0
0.25 0.875 0
0.125 0.875 0
0.25 0.875 0
0.125 1 0
0.25 1 0
0 0.875 0
0.125 0.875 0
0 1 0
0.125 1 0
1 0 0
1.125 0 0
1 0.125 0
1.125 0.125 0
1.125 0 0
1.25 0 0
1.125 0.125 0
1.25 0.125 0
1.125 0.125 0
1.25 0.125 0
1.125 0.25 0
1.25 0.25 0
1 0.125 0
1.125 0.125 0
1 0.25 0
1.125 0.25 0
1.25 0 0
1.375 0 0
1.25 0.125 0
1.375 0.125 0
1.375 0 0
1.5 0 0
1.375 0.125 0
1.5 0.125 0
1.375 0.125 0
1.5 0.125 0
1.375 0.25 0
1.5 0.25 0
1.25 0.125 0
1.375 0.125 0
1.25 0.25 0
1.375 0.25 0
1.25 0.25 0
1.375 0.25 0
1.25 0.375 0
1.375 0.375 0
1.375 0.25 0
1.5 0.25 0
1.375 0.375 0
1.5 0.375 0
1.375 0.375 0
1.5 0.375 0
1.375 0.5 0
1.5 0.5 0
1.25 0.375 0
1.375 0.375 0
1.25 0.5 0
1.375 0.5 0
1 0.25 0
1.125 0.25 0
1 0.375 0
1.125 0.375 0
1.125 0.25 0
1.25 0.25 0
1.125 0.375 0
1.25 0.375 0
1.125 0.375 0
1.25 0.375 0
1.125 0.5 0
1.25 0.5 0
1 0.375 0
1.125 0.375 0
1 0.5 0
1.125 0.5 0
1.5 0 0
1.625 0 0
1.5 0.125 0
1.625 0.125 0
1.625 0 0
1.75 0 0
1.625 0.125 0
1.75 0.125 0
1.625 0.125 0
1.75 0.125 0
1.625 0.25 0
1.75 0.25 0
1.5 0.125 0
1.625 0.125 0
1.5 0.25 0
1.625 0.25 0
1.75 0 0
1.875 0 0
1.75 0.125 0
1.875 0.125 0
1.875 0 0
2 0 0
1.875 0.125 0
2 0.125 0
1.875 0.125 0
2 0.125 0
1.875 0.25 0
2 0.25 0
1.75 0.125 0
1.875 0.125 0
1.75 0.25 0
1.875 0.25 0
1.75 0.25 0
1.875 0.25 0
1.75 0.375 0
1.875 0.375 0
1.875 0.25 0
2 0.25 0
1.875 0.375 0
2 0.375 0
1.875 0.375 0
2 0.375 0
1.875 0.5 0
2 0.5 0
1.75 0.375 0
1.875 0.375 0
1.75 0.5 0
1.875 0.5 0
1.5 0.25 0
1.625 0.25 0
1.5 0.375 0
1.625 0.375 0
1.625 0.25 0
1.75 0.25 0
1.625 0.375 0
1.75 0.375 0
1.625 0.375 0
1.75 0.375 0
1.625 0.5 0
1.75 0.5 0
1.5 0.375 0
1.625 0.375 0
1.5 0.5 0
1.625 0.5 0
1.5 0.5 0
1.625 0.5 0
1.5 0.625 0
1.625 0.625 0
1.625 0.5 0
1.75 0.5 0
1.625 0.625 0
1.75 0.625 0
1.625 0.625 0
1.75 0.625 0
1.625 0.75 0
1.75 0.75 0
1.5 0.625 0
1.625 0.625 0
1.5 0.75 0
1.625 0.75 0
1.75 0.5 0
1.875 0.5 0
1.75 0.625 0
1.875 0.625 0
1.875 0.5 0
2 0.5 0
1.875 0.625 0
2 0.625 0
1.875 0.625 0
2 0.625 0
1.875 0.75 0
2 0.75 0
1.75 0.625 0
1.875 0.625 0
1.75 0.75 0
1.875 0.75 0
1.75 0.75 0
1.875 0.75 0
1.75 0.875 0
1.875 0.875 0
1.875 0.75 0
2 0.75 0
1.875 0.875 0
2 0.875 0
1.875 0.875 0
2 0.875 0
1.875 1 0
2 1 0
1.75 0.875 0
1.875 0.875 0
1.75 1 0
1.875 1 0
1.5 0.75 0
1.625 0.75 0
1.5 0.875 0
1.625 0.875 0
1.625 0.75 0
1.75 0.75 0
1.625 0.875 0
1.75 0.875 0
1.625 0.875 0
1.75 0.875 0
1.625 1 0
1.75 1 0
1.5 0.875 0
1.625 0.875 0
1.5 1 0
1.625 1 0
1 0.5 0
1.125 0.5 0
1 0.625 0
1.125 0.625 0
1.125 0.5 0
1.25 0.5 0
1.125 0.625 0
1.25 0.625 0
1.125 0.625 0
1.25 0.625 0
1.125 0.75 0
1.25 0.75 0
1 0.625 0
1.125 0.625 0
1 0.75 0
1.125 0.75 0
1.25 0.5 0
1.375 0.5 0
1.25 0.625 0
1.375 0.625 0
1.375 0.5 0
1.5 0.5 0
1.375 0.625 0
1.5 0.625 0
1.375 0.625 0
1.5 0.625 0
1.375 0.75 0
1.5 0.75 0
1.25 0.625 0
1.375 0.625 0
1.25 0.75 0
1.375 0.75 0
1.25 0.75 0
1.375 0.75 0
1.25 0.875 0
1.375 0.875 0
1.375 0.75 0
1.5 0.75 0
1.375 0.875 0
1.5 0.875 0
1.375 0.875 0
1.5 0.875 0
1.375 1 0
1.5 1 0
1.25 0.875 0
1.375 0.875 0
1.25 1 0
1.375 1 0
1 0.75 0
1.125 0.75 0
1 0.875 0
1.125 0.875 0
1.125 0.75 0
1.25 0.75 0
1.125 0.875 0
1.25 0.875 0
1.125 0.875 0
1.25 0.875 0
1.125 1 0
1.25 1 0
1 0.875 0
1.125 0.875 0
1 1 0
1.125 1 0
2 0 0
2.125 0 0
2 0.125 0
2.125 0.125 0
2.125 0 0
2.25 0 0
2.125 0.125 0
2.25 0.125 0
2.125 0.125 0
2.25 0.125 0
2.125 0.25 0
2.25 0.25 0
2 0.125 0
2.125 0.125 0
2 0.25 0
2.125 0.25 0
2.25 0 0
2.375 0 0
2.25 0.125 0
2.375 0.125 0
2.375 0 0
2.5 0 0
2.375 0.125 0
2.5 0.125 0
2.375 0.125 0
2.5 0.125 0
2.375 0.25 0
2.5 0.25 0
2.25 0.125 0
2.375 0.125 0
2.25 0.25 0
2.375 0.25 0
2.25 0.25 0
2.375 0.25 0
2.25 0.375 0
2.375 0.375 0
2.375 0.25 0
2.5 0.25 0
2.375 0.375 0
2.5 0.375 0
2.375 0.375 0
2.5 0.375 0
2.375 0.5 0
2.5 0.5 0
2.25 0.375 0
2.375 0.375 0
2.25 0.5 0
2.375 0.5 0
2 0.25 0
2.125 0.25 0
2 0.375 0
2.125 0.375 0
2.125 0.25 0
2.25 0.25 0
2.125 0.375 0
2.25 0.375 0
2.125 0.375 0
2.25 0.375 0
2.125 0.5 0
2.25 0.5 0
2 0.375 0
2.125 0.375 0
2 0.5 0
2.125 0.5 0
2.5 0 0
2.625 0 0
2.5 0.125 0
2.625 0.125 0
2.625 0 0
2.75 0 0
2.625 0.125 0
2.75 0.125 0
2.625 0.125 0
2.75 0.125 0
2.625 0.25 0
2.75 0.25 0
2.5 0.125 0
2.625 0.125 0
2.5 0.25 0
2.625 0.25 0
2.75 0 0
2.875 0 0
2.75 0.125 0
2.875 0.125 0
2.875 0 0
3 0 0
2.875 0.125 0
3 0.125 0
2.875 0.125 0
3 0.125 0
2.875 0.25 0
3 0.25 0
2.75 0.125 0
2.875 0.125 0
2.75 0.25 0
2.875 0.25 0
2.75 0.25 0
2.875 0.25 0
2.75 0.375 0
2.875 0.375 0
2.875 0.25 0
3 0.25 0
2.875 0.375 0
3 0.375 0
2.875 0.375 0
3 0.375 0
2.875 0.5 0
3 0.5 0
2.75 0.375 0
2.875 0.375 0
2.75 0.5 0
2.875 0.5 0
2.5 0.25 0
2.625 0.25 0
2.5 0.375 0
2.625 0.375 0
2.625 0.25 0
2.75 0.25 0
2.625 0.375 0
2.75 0.375 0
2.625 0.375 0
2.75 0.375 0
2.625 0.5 0
2.75 0.5 0
2.5 0.375 0
2.625 0.375 0
2.5 0.5 0
2.625 0.5 0
2.5 0.5 0
2.625 0.5 0
2.5 0.625 0
2.625 0.625 0
2.625 0.5 0
2.75 0.5 0
2.625 0.625 0
2.75 0.625 0
2.625 0.625 0
2.75 0.625 0
2.625 0.75 0
2.75 0.75 0
2.5 0.625 0
2.625 0.625 0
2.5 0.75 0
2.625 0.75 0
2.75 0.5 0
2.875 0.5 0
2.75 0.625 0
2.875 0.625 0
2.875 0.5 0
3 0.5 0
2.875 0.625 0
3 0.625 0
2.875 0.625 0
3 0.625 0
2.875 0.75 0
3 0.75 0
2.75 0.625 0
2.875 0.625 0
2.75 0.75 0
2.875 0.75 0
2.75 0.75 0
2.875 0.75 0
2.75 0.875 0
2.875 0.875 0
2.875 0.75 0
3 0.75 0
2.875 0.875 0
3 0.875 0
2.875 0.875 0
3 0.875 0
2.875 1 0
3 1 0
2.75 0.875 0
2.875 0.875 0
2.75 1 0
2.875 1 0
2.5 0.75 0
2.625 0.75 0
2.5 0.875 0
2.625 0.875 0
2.625 0.75 0
2.75 0.75 0
2.625 0.875 0
2.75 0.875 0
2.625 0.875 0
2.75 0.875 0
2.625 1 0
2.75 1 0
2.5 0.875 0
2.625 0.875 0
2.5 1 0
2.625 1 0
2 0.5 0
2.125 0.5 0
2 0.625 0
2.125 0.625 0
2.125 0.5 0
2.25 0.5 0
2.125 0.625 0
2.25 0.625 0
2.125 0.625 0
2.25 0.625 0
2.125 0.75 0
2.25 0.75 0
2 0.625 0
2.125 0.625 0
2 0.75 0
2.125 0.75 0
2.25 0.5 0
2.375 0.5 0
2.25 0.625 0
2.375 0.625 0
2.375 0.5 0
2.5 0.5 0
2.375 0.625 0
2.5 0.625 0
2.375 0.625 0
2.5 0.625 0
2.375 0.75 0
2.5 0.75 0
2.25 0.625 0
2.375 0.625 0
2.25 0.75 0
2.375 0.75 0
2.25 0.75 0
2.375 0.75 0
2.25 0.875 0
2.375 0.875 0
2.375 0.75 0
2.5 0.75 0
2.375 0.875 0
2.5 0.875 0
2.375 0.875 0
2.5 0.875 0
2.375 1 0
2.5 1 0
2.25 0.875 0
2.375 0.875 0
2.25 1 0
2.375 1 0
2 0.75 0
2.125 0.75 0
2 0.875 0
2.125 0.875 0
2.125 0.75 0
2.25 0.75 0
2.125 0.875 0
2.25 0.875 0
2.125 0.875 0
2.25 0.875 0
2.125 1 0
2.25 1 0
2 0.875 0
2.125 0.875 0
2 1 0
2.125 1 0
3 0 0
3.125 0 0
3 0.125 0
3.125 0.125 0
3.125 0 0
3.25 0 0
3.125 0.125 0
3.25 0.125 0
3.125 0.125 0
3.25 0.125 0
3.125 0.25 0
3.25 0.25 0
3 0.125 0
3.125 0.125 0
3 0.25 0
3.125 0.25 0
3.25 0 0
3.375 0 0
3.25 0.125 0
3.375 0.125 0
3.375 0 0
3.5 0 0
3.375 0.125 0
3.5 0.125 0
3.375 0.125 0
3.5 0.125 0
3.375 0.25 0
3.5 0.25 0
3.25 0.125 0
3.375 0.125 0
3.25 0.25 0
3.375 0.25 0
3.25 0.25 0
3.375 0.25 0
3.25 0.375 0
3.375 0.375 0
3.375 0.25 0
3.5 0.25 0
3.375 0.375 0
3.5 0.375 0
3.375 0.375 0
3.5 0.375 0
3.375 0.5 0
3.5 0.5 0
3.25 0.375 0
3.375 0.375 0
3.25 0.5 0
[...]
<CellData Scalars="attribute">
<DataArray type="Int32" Name="attribute" format="ascii">
1
1
1
1
1
1
1
1
1
1
1
1
1
1
1
1
1
1
1
1
1
1
1
1
1
1
1
1
1
1
1
1
1
1
1
1
1
1
1
1
1
1
1
1
1
1
1
1
1
1
1
1
1
1
1
1
1
1
1
1
1
1
1
1
1
1
1
1
1
1
1
1
1
1
1
1
1
1
1
1
1
1
1
1
1
1
1
1
1
1
1
1
1
1
1
1
1
1
1
1
1
1
1
1
1
1
1
1
1
1
1
1
1
1
1
1
1
1
1
1
1
1
1
1
1
1
1
1
1
1
1
1
1
1
1
1
1
1
1
1
1
1
1
1
1
1
1
1
1
1
1
1
1
1
1
1
1
1
1
1
1
1
1
1
1
1
1
1
1
1
1
1
1
1
1
1
1
1
1
1
1
1
1
1
1
1
1
1
1
1
1
1
1
1
1
1
1
1
1
1
1
1
1
1
1
1
1
1
1
1
1
1
1
1
1
1
1
1
1
1
1
1
1
1
1
1
1
1
1
1
1
1
1
1
1
1
1
1
1
1
1
1
1
1
1
1
1
1
1
1
1
1
1
1
1
1
2
2
2
2
2
2
2
2
2
2
2
2
2
2
2
2
2
2
2
2
2
2
2
2
2
2
2
2
2
2
2
2
2
2
2
2
2
2
2
2
2
2
2
2
2
2
2
2
2
2
2
2
2
2
2
2
2
2
2
2
2
2
2
2
2
2
2
2
2
2
2
2
2
2
2
2
2
2
2
2
2
2
2
2
2
2
2
2
2
2
2
2
2
2
2
2
2
2
2
2
2
2
2
2
2
2
2
2
2
2
2
2
2
2
2
2
2
2
2
2
2
2
2
2
2
2
2
2
2
2
2
2
2
2
2
2
2
2
2
2
2
2
2
2
2
2
2
2
2
2
2
2
2
2
2
2
2
2
2
2
2
2
2
2
2
2
2
2
2
2
2
2
2
2
2
2
2
2
2
2
2
2
2
2
2
2
2
2
2
2
2
2
2
2
2
2
2
2
2
2
2
2
2
2
2
2
2
2
2
2
2
2
2
2
2
2
2
2
2
2
2
2
2
2
2
2
2
2
2
2
2
2
2
2
2
2
2
2
2
2
2
2
2
2
2
2
2
2
2
2
2
2
2
2
2
2
</DataArray>
</CellData>
<PointData >
<DataArray type="Float64" Name="Pressure" NumberOfComponents="1" format="ascii" >
-0.000150992
-1.06399e-07
-0.000247081
-1.76128e-07
-1.06399e-07
3.16879e-12
-1.76128e-07
5.48741e-12
-1.76128e-07
5.48741e-12
-1.18242e-07
3.72635e-12
-0.000247081
-1.76128e-07
-0.000164722
-1.18242e-07
3.16879e-12
-6.06973e-17
5.48741e-12
-1.08366e-16
-6.06973e-17
1.18537e-21
-1.08366e-16
2.19406e-21
-1.08366e-16
2.19406e-21
-7.54521e-17
1.56904e-21
5.48741e-12
-1.08366e-16
3.72635e-12
-7.54521e-17
3.72635e-12
-7.54521e-17
1.90959e-12
-3.85549e-17
-7.54521e-17
1.56904e-21
-3.85549e-17
8.02599e-22
-3.85549e-17
8.02599e-22
-1.27579e-18
2.54542e-23
1.90959e-12
-3.85549e-17
6.72877e-14
-1.27579e-18
-0.000164722
-1.18242e-07
-8.23621e-05
-6.00426e-08
-1.18242e-07
3.72635e-12
-6.00426e-08
1.90959e-12
-6.00426e-08
1.90959e-12
-1.32973e-09
6.72877e-14
-8.23621e-05
-6.00426e-08
-1.63637e-09
-1.32973e-09
1.18537e-21
-1.20282e-26
2.19406e-21
-2.30733e-26
-1.20282e-26
2.11309e-31
-2.30733e-26
4.07607e-31
-2.30733e-26
4.07607e-31
-1.70917e-26
3.06266e-31
2.19406e-21
-2.30733e-26
1.56904e-21
-1.70917e-26
2.11309e-31
-9.05531e-37
4.07607e-31
-1.92548e-36
-9.05531e-37
2.42556e-41
-1.92548e-36
4.74897e-41
-1.92548e-36
4.74897e-41
-1.55651e-36
3.67742e-41
4.07607e-31
-1.92548e-36
3.06266e-31
-1.55651e-36
3.06266e-31
-1.55651e-36
1.59221e-31
-8.20678e-37
-1.55651e-36
3.67742e-41
-8.20678e-37
1.95289e-41
-8.20678e-37
1.95289e-41
-2.36508e-38
4.97204e-43
1.59221e-31
-8.20678e-37
4.56615e-33
-2.36508e-38
1.56904e-21
-1.70917e-26
8.02599e-22
-8.79647e-27
-1.70917e-26
3.06266e-31
-8.79647e-27
1.59221e-31
-8.79647e-27
1.59221e-31
-2.6858e-28
4.56615e-33
8.02599e-22
-8.79647e-27
2.54542e-23
-2.6858e-28
2.54542e-23
-2.6858e-28
-7.62526e-22
8.37786e-27
-2.6858e-28
4.56615e-33
8.37786e-27
-1.52254e-31
8.37786e-27
-1.52254e-31
1.70304e-26
-3.05456e-31
-7.62526e-22
8.37786e-27
-1.56166e-21
1.70304e-26
4.56615e-33
-2.36508e-38
-1.52254e-31
7.84845e-37
-2.36508e-38
4.97204e-43
7.84845e-37
-1.87917e-41
7.84845e-37
-1.87917e-41
1.55231e-36
-3.67146e-41
-1.52254e-31
7.84845e-37
-3.05456e-31
1.55231e-36
-3.05456e-31
1.55231e-36
-4.14111e-31
1.9548e-36
1.55231e-36
-3.67146e-41
1.9548e-36
-4.81542e-41
1.9548e-36
-4.81542e-41
9.25289e-37
-2.47251e-41
-4.14111e-31
1.9548e-36
-2.16065e-31
9.25289e-37
-1.56166e-21
1.70304e-26
-2.23316e-21
2.34659e-26
1.70304e-26
-3.05456e-31
2.34659e-26
-4.14111e-31
2.34659e-26
-4.14111e-31
1.23201e-26
-2.16065e-31
-2.23316e-21
2.34659e-26
-1.21653e-21
1.23201e-26
-1.63637e-09
-1.32973e-09
8.23594e-05
5.78966e-08
-1.32973e-09
6.72877e-14
5.78966e-08
-1.80124e-12
5.78966e-08
-1.80124e-12
1.17636e-07
-3.69658e-12
8.23594e-05
5.78966e-08
0.000164721
1.17636e-07
6.72877e-14
-1.27579e-18
-1.80124e-12
3.6521e-17
-1.27579e-18
2.54542e-23
3.6521e-17
-7.62526e-22
3.6521e-17
-7.62526e-22
7.4979e-17
-1.56166e-21
-1.80124e-12
3.6521e-17
-3.69658e-12
7.4979e-17
-3.69658e-12
7.4979e-17
-5.58889e-12
1.10382e-16
7.4979e-17
-1.56166e-21
1.10382e-16
-2.23316e-21
1.10382e-16
-2.23316e-21
6.24135e-17
-1.21653e-21
-5.58889e-12
1.10382e-16
-3.27272e-12
6.24135e-17
0.000164721
1.17636e-07
0.000247084
1.78109e-07
1.17636e-07
-3.69658e-12
1.78109e-07
-5.58889e-12
1.78109e-07
-5.58889e-12
1.08499e-07
-3.27272e-12
0.000247084
1.78109e-07
0.000150995
1.08499e-07
2.42556e-41
1.73016e-47
4.74897e-41
6.04659e-48
1.73016e-47
2.14922e-51
6.04659e-48
4.17062e-51
6.04659e-48
4.17062e-51
-1.1533e-47
3.25491e-51
4.74897e-41
6.04659e-48
3.67742e-41
-1.1533e-47
2.14922e-51
9.44738e-57
4.17062e-51
1.59854e-56
9.44738e-57
1.56506e-61
1.59854e-56
2.98246e-61
1.59854e-56
2.98246e-61
1.10312e-56
2.31504e-61
4.17062e-51
1.59854e-56
3.25491e-51
1.10312e-56
3.25491e-51
1.10312e-56
1.75422e-51
5.74959e-57
1.10312e-56
2.31504e-61
5.74959e-57
1.25525e-61
5.74959e-57
1.25525e-61
9.66326e-59
2.38779e-63
1.75422e-51
5.74959e-57
3.88645e-53
9.66326e-59
3.67742e-41
-1.1533e-47
1.95289e-41
-7.79874e-48
-1.1533e-47
3.25491e-51
-7.79874e-48
1.75422e-51
-7.79874e-48
1.75422e-51
-4.36314e-49
3.88645e-53
1.95289e-41
-7.79874e-48
4.97204e-43
-4.36314e-49
1.56506e-61
9.55826e-67
2.98246e-61
1.71329e-66
9.55826e-67
9.17983e-72
1.71329e-66
1.7242e-71
1.71329e-66
1.7242e-71
1.25869e-66
1.32915e-71
2.98246e-61
1.71329e-66
2.31504e-61
1.25869e-66
9.17983e-72
5.82224e-77
1.7242e-71
1.06306e-76
5.82224e-77
4.21351e-82
1.06306e-76
7.84891e-82
1.06306e-76
7.84891e-82
7.98549e-77
6.02741e-82
1.7242e-71
1.06306e-76
1.32915e-71
7.98549e-77
1.32915e-71
7.98549e-77
7.21679e-72
4.29323e-77
7.98549e-77
6.02741e-82
4.29323e-77
3.27334e-82
4.29323e-77
3.27334e-82
6.1745e-79
4.58553e-84
7.21679e-72
4.29323e-77
1.17572e-73
6.1745e-79
2.31504e-61
1.25869e-66
1.25525e-61
6.70194e-67
1.25869e-66
1.32915e-71
6.70194e-67
7.21679e-72
6.70194e-67
7.21679e-72
1.07683e-68
1.17572e-73
1.25525e-61
6.70194e-67
2.38779e-63
1.07683e-68
2.38779e-63
1.07683e-68
-1.22088e-61
-6.54958e-67
1.07683e-68
1.17572e-73
-6.54958e-67
-7.04875e-72
-6.54958e-67
-7.04875e-72
-1.2591e-66
-1.32869e-71
-1.22088e-61
-6.54958e-67
-2.31358e-61
-1.2591e-66
1.17572e-73
6.1745e-79
-7.04875e-72
-4.20591e-77
6.1745e-79
4.58553e-84
-4.20591e-77
-3.2081e-82
-4.20591e-77
-3.2081e-82
-7.98674e-77
-6.02633e-82
-7.04875e-72
-4.20591e-77
-1.32869e-71
-7.98674e-77
-1.32869e-71
-7.98674e-77
-1.74007e-71
-1.07226e-76
-7.98674e-77
-6.02633e-82
-1.07226e-76
-7.91194e-82
-1.07226e-76
-7.91194e-82
-5.88784e-77
-4.25822e-82
-1.74007e-71
-1.07226e-76
-9.29222e-72
-5.88784e-77
-2.31358e-61
-1.2591e-66
-3.01396e-61
-1.73029e-66
-1.2591e-66
-1.32869e-71
-1.73029e-66
-1.74007e-71
-1.73029e-66
-1.74007e-71
-9.68086e-67
-9.29222e-72
-3.01396e-61
-1.73029e-66
-1.58729e-61
-9.68086e-67
4.97204e-43
-4.36314e-49
-1.87917e-41
7.11628e-48
-4.36314e-49
3.88645e-53
7.11628e-48
-1.69765e-51
7.11628e-48
-1.69765e-51
1.13164e-47
-3.25154e-51
-1.87917e-41
7.11628e-48
-3.67146e-41
1.13164e-47
3.88645e-53
9.66326e-59
-1.69765e-51
-5.61352e-57
9.66326e-59
2.38779e-63
-5.61352e-57
-1.22088e-61
-5.61352e-57
-1.22088e-61
-1.10414e-56
-2.31358e-61
-1.69765e-51
-5.61352e-57
-3.25154e-51
-1.10414e-56
-3.25154e-51
-1.10414e-56
-4.22133e-51
-1.61658e-56
-1.10414e-56
-2.31358e-61
-1.61658e-56
-3.01396e-61
-1.61658e-56
-3.01396e-61
-9.58283e-57
-1.58729e-61
-4.22133e-51
-1.61658e-56
-2.18484e-51
-9.58283e-57
-3.67146e-41
1.13164e-47
-4.81542e-41
-6.07756e-48
1.13164e-47
-3.25154e-51
-6.07756e-48
-4.22133e-51
-6.07756e-48
-4.22133e-51
-1.74715e-47
-2.18484e-51
-4.81542e-41
-6.07756e-48
-2.47251e-41
-1.74715e-47
4.21351e-82
2.49911e-87
7.84891e-82
4.59675e-87
2.49911e-87
1.4993e-92
4.59675e-87
2.78147e-92
4.59675e-87
2.78147e-92
3.48968e-87
2.13341e-92
7.84891e-82
4.59675e-87
6.02741e-82
3.48968e-87
1.4993e-92
8.02217e-98
2.78147e-92
1.48001e-97
8.02217e-98
4.1543e-103
1.48001e-97
7.69173e-103
1.48001e-97
7.69173e-103
1.12983e-97
5.90043e-103
2.78147e-92
1.48001e-97
2.13341e-92
1.12983e-97
2.13341e-92
1.12983e-97
1.15885e-92
6.12387e-98
1.12983e-97
5.90043e-103
6.12387e-98
3.20608e-103
6.12387e-98
3.20608e-103
6.81011e-100
3.3686e-105
1.15885e-92
6.12387e-98
1.40312e-94
6.81011e-100
6.02741e-82
3.48968e-87
3.27334e-82
1.88601e-87
3.48968e-87
2.13341e-92
1.88601e-87
1.15885e-92
1.88601e-87
1.15885e-92
2.39183e-89
1.40312e-94
3.27334e-82
1.88601e-87
4.58553e-84
2.39183e-89
4.1543e-103
1.98577e-108
7.69173e-103
3.66771e-108
1.98577e-108
9.0483e-114
3.66771e-108
1.6736e-113
3.66771e-108
1.6736e-113
2.80863e-108
1.28464e-113
7.69173e-103
3.66771e-108
5.90043e-103
2.80863e-108
9.0483e-114
3.86212e-119
1.6736e-113
7.13556e-119
3.86212e-119
1.56437e-124
7.13556e-119
2.89175e-124
7.13556e-119
2.89175e-124
5.47439e-119
2.22124e-124
1.6736e-113
7.13556e-119
1.28464e-113
5.47439e-119
1.28464e-113
5.47439e-119
6.98233e-114
2.97444e-119
5.47439e-119
2.22124e-124
2.97444e-119
1.20755e-124
2.97444e-119
1.20755e-124
2.52917e-121
9.62338e-127
6.98233e-114
2.97444e-119
6.38358e-116
2.52917e-121
5.90043e-103
2.80863e-108
3.20608e-103
1.52474e-108
2.80863e-108
1.28464e-113
1.52474e-108
6.98233e-114
1.52474e-108
6.98233e-114
1.48336e-110
6.38358e-116
3.20608e-103
1.52474e-108
3.3686e-105
1.48336e-110
3.3686e-105
1.48336e-110
-3.15835e-103
-1.50377e-108
1.48336e-110
6.38358e-116
-1.50377e-108
-6.89195e-114
-1.50377e-108
-6.89195e-114
-2.80867e-108
-1.2846e-113
-3.15835e-103
-1.50377e-108
-5.90016e-103
-2.80867e-108
6.38358e-116
2.52917e-121
-6.89195e-114
-2.93866e-119
2.52917e-121
9.62338e-127
-2.93866e-119
-1.19393e-124
-2.93866e-119
-1.19393e-124
-5.47438e-119
-2.22119e-124
-6.89195e-114
-2.93866e-119
-1.2846e-113
-5.47438e-119
-1.2846e-113
-5.47438e-119
-1.68254e-113
-7.17121e-119
-5.47438e-119
-2.22119e-124
-7.17121e-119
-2.90523e-124
-7.17121e-119
-2.90523e-124
-3.88736e-119
-1.57392e-124
-1.68254e-113
-7.17121e-119
-9.11166e-114
-3.88736e-119
-5.90016e-103
-2.80867e-108
-7.73882e-103
-3.68873e-108
-2.80867e-108
-1.2846e-113
-3.68873e-108
-1.68254e-113
-3.68873e-108
-1.68254e-113
-2.00065e-108
-9.11166e-114
-7.73882e-103
-3.68873e-108
-4.18768e-103
-2.00065e-108
4.58553e-84
2.39183e-89
-3.2081e-82
-1.85219e-87
2.39183e-89
1.40312e-94
-1.85219e-87
-1.13894e-92
-1.85219e-87
-1.13894e-92
-3.48995e-87
-2.13322e-92
-3.2081e-82
-1.85219e-87
-6.02633e-82
-3.48995e-87
1.40312e-94
6.81011e-100
-1.13894e-92
-6.02759e-98
6.81011e-100
3.3686e-105
-6.02759e-98
-3.15835e-103
-6.02759e-98
-3.15835e-103
-1.12987e-97
-5.90016e-103
-1.13894e-92
-6.02759e-98
-2.13322e-92
-1.12987e-97
-2.13322e-92
-1.12987e-97
-2.80097e-92
-1.48974e-97
-1.12987e-97
-5.90016e-103
-1.48974e-97
-7.73882e-103
-1.48974e-97
-7.73882e-103
-8.09112e-98
-4.18768e-103
-2.80097e-92
-1.48974e-97
-1.51313e-92
-8.09112e-98
-6.02633e-82
-3.48995e-87
-7.91194e-82
-4.63144e-87
-3.48995e-87
-2.13322e-92
-4.63144e-87
-2.80097e-92
-4.63144e-87
-2.80097e-92
-2.52372e-87
-1.51313e-92
-7.91194e-82
-4.63144e-87
-4.25822e-82
-2.52372e-87
1.56437e-124
5.97611e-130
2.89175e-124
1.10408e-129
5.97611e-130
2.16476e-135
1.10408e-129
3.99985e-135
1.10408e-129
3.99985e-135
8.48046e-130
3.07433e-135
2.89175e-124
1.10408e-129
2.22124e-124
8.48046e-130
2.16476e-135
7.42023e-141
3.99985e-135
1.37061e-140
7.42023e-141
2.41236e-146
1.37061e-140
4.45579e-146
1.37061e-140
4.45579e-146
1.0536e-140
3.42654e-146
3.99985e-135
1.37061e-140
3.07433e-135
1.0536e-140
3.07433e-135
1.0536e-140
1.67153e-135
5.72812e-141
1.0536e-140
3.42654e-146
5.72812e-141
1.86309e-146
5.72812e-141
1.86309e-146
3.71941e-143
1.13177e-148
1.67153e-135
5.72812e-141
1.16253e-137
3.71941e-143
2.22124e-124
8.48046e-130
1.20755e-124
4.60972e-130
8.48046e-130
3.07433e-135
4.60972e-130
1.67153e-135
4.60972e-130
1.67153e-135
3.42507e-132
1.16253e-137
1.20755e-124
4.60972e-130
9.62338e-127
3.42507e-132
2.41236e-146
7.43352e-152
4.45579e-146
1.37273e-151
7.43352e-152
2.17301e-157
1.37273e-151
4.01245e-157
1.37273e-151
4.01245e-157
1.0558e-151
3.08688e-157
4.45579e-146
1.37273e-151
3.42654e-146
1.0558e-151
2.17301e-157
6.02403e-163
4.01245e-157
1.11215e-162
6.02403e-163
1.58385e-168
1.11215e-162
2.92375e-168
1.11215e-162
2.92375e-168
8.55728e-163
2.25004e-168
4.01245e-157
1.11215e-162
3.08688e-157
8.55728e-163
3.08688e-157
8.55728e-163
1.67836e-157
4.65247e-163
8.55728e-163
2.25004e-168
4.65247e-163
1.22329e-168
4.65247e-163
1.22329e-168
2.30925e-165
5.67965e-171
1.67836e-157
4.65247e-163
8.91099e-160
2.30925e-165
3.42654e-146
1.0558e-151
1.86309e-146
5.7404e-152
1.0558e-151
3.08688e-157
5.7404e-152
1.67836e-157
5.7404e-152
1.67836e-157
3.25829e-154
8.91099e-160
1.86309e-146
5.7404e-152
1.13177e-148
3.25829e-154
1.13177e-148
3.25829e-154
-1.84706e-146
-5.69426e-152
3.25829e-154
8.91099e-160
-5.69426e-152
-1.66574e-157
-5.69426e-152
-1.66574e-157
-1.05578e-151
-3.08679e-157
-1.84706e-146
-5.69426e-152
-3.42646e-146
-1.05578e-151
8.91099e-160
2.30925e-165
-1.66574e-157
-4.61975e-163
2.30925e-165
5.67965e-171
-4.61975e-163
-1.21524e-168
-4.61975e-163
-1.21524e-168
-8.55702e-163
-2.24996e-168
-1.66574e-157
-4.61975e-163
-3.08679e-157
-8.55702e-163
-3.08679e-157
-8.55702e-163
-4.02485e-157
-1.11536e-162
-8.55702e-163
-2.24996e-168
-1.11536e-162
-2.93163e-168
-1.11536e-162
-2.93163e-168
-6.04675e-163
-1.58943e-168
-4.02485e-157
-1.11536e-162
-2.18179e-157
-6.04675e-163
-3.42646e-146
-1.05578e-151
-4.47158e-146
-1.37727e-151
-1.05578e-151
-3.08679e-157
-1.37727e-151
-4.02485e-157
-1.37727e-151
-4.02485e-157
-7.4657e-152
-2.18179e-157
-4.47158e-146
-1.37727e-151
-2.42355e-146
-7.4657e-152
9.62338e-127
3.42507e-132
-1.19393e-124
-4.56126e-130
3.42507e-132
1.16253e-137
-4.56126e-130
-1.65507e-135
-4.56126e-130
-1.65507e-135
-8.48036e-130
-3.07426e-135
-1.19393e-124
-4.56126e-130
-2.22119e-124
-8.48036e-130
1.16253e-137
3.71941e-143
-1.65507e-135
-5.67547e-141
3.71941e-143
1.13177e-148
-5.67547e-141
-1.84706e-146
-5.67547e-141
-1.84706e-146
-1.05358e-140
-3.42646e-146
-1.65507e-135
-5.67547e-141
-3.07426e-135
-1.05358e-140
-3.07426e-135
-1.05358e-140
-4.01611e-135
-1.37582e-140
-1.05358e-140
-3.42646e-146
-1.37582e-140
-4.47158e-146
-1.37582e-140
-4.47158e-146
-7.45709e-141
-2.42355e-146
-4.01611e-135
-1.37582e-140
-2.17627e-135
-7.45709e-141
-2.22119e-124
-8.48036e-130
-2.90523e-124
-1.10889e-129
-8.48036e-130
-3.07426e-135
-1.10889e-129
-4.01611e-135
-1.10889e-129
-4.01611e-135
-6.01016e-130
-2.17627e-135
-2.90523e-124
-1.10889e-129
-1.57392e-124
-6.01016e-130
1.58385e-168
3.94738e-174
2.92375e-168
7.28576e-174
3.94738e-174
9.32036e-180
7.28576e-174
1.72008e-179
7.28576e-174
1.72008e-179
5.6076e-174
1.32406e-179
2.92375e-168
7.28576e-174
2.25004e-168
5.6076e-174
9.32036e-180
2.08277e-185
1.72008e-179
3.8433e-185
2.08277e-185
4.39902e-191
3.8433e-185
8.11658e-191
3.8433e-185
8.11658e-191
2.95874e-185
6.24909e-191
1.72008e-179
3.8433e-185
1.32406e-179
2.95874e-185
1.32406e-179
2.95874e-185
7.19795e-180
1.60837e-185
2.95874e-185
6.24909e-191
1.60837e-185
3.39685e-191
1.60837e-185
3.39685e-191
6.11219e-188
1.20791e-193
7.19795e-180
1.60837e-185
2.92399e-182
6.11219e-188
2.25004e-168
5.6076e-174
1.22329e-168
3.04857e-174
5.6076e-174
1.32406e-179
3.04857e-174
7.19795e-180
3.04857e-174
7.19795e-180
1.32373e-176
2.92399e-182
1.22329e-168
3.04857e-174
5.67965e-171
1.32373e-176
4.39902e-191
8.76501e-197
8.11658e-191
1.61705e-196
8.76501e-197
1.6433e-202
1.61705e-196
3.03141e-202
1.61705e-196
3.03141e-202
1.24509e-196
2.3343e-202
8.11658e-191
1.61705e-196
6.24909e-191
1.24509e-196
1.6433e-202
2.88873e-208
3.03141e-202
5.32834e-208
2.88873e-208
4.73746e-214
5.32834e-208
8.7376e-214
5.32834e-208
8.7376e-214
4.1033e-208
6.72913e-214
3.03141e-202
5.32834e-208
2.3343e-202
4.1033e-208
2.3343e-202
4.1033e-208
1.26874e-202
2.23011e-208
4.1033e-208
6.72913e-214
2.23011e-208
3.65705e-214
2.23011e-208
3.65705e-214
6.50123e-211
9.98087e-217
1.26874e-202
2.23011e-208
3.95139e-205
6.50123e-211
6.24909e-191
1.24509e-196
3.39685e-191
6.76766e-197
1.24509e-196
2.3343e-202
6.76766e-197
1.26874e-202
6.76766e-197
1.26874e-202
2.25198e-199
3.95139e-205
3.39685e-191
6.76766e-197
1.20791e-193
2.25198e-199
1.20791e-193
2.25198e-199
-3.3797e-191
-6.73567e-197
2.25198e-199
3.95139e-205
-6.73567e-197
-1.26312e-202
-6.73567e-197
-1.26312e-202
-1.24504e-196
-2.3342e-202
-3.3797e-191
-6.73567e-197
-6.24884e-191
-1.24504e-196
3.95139e-205
6.50123e-211
-1.26312e-202
-2.22086e-208
6.50123e-211
9.98087e-217
-2.22086e-208
-3.64285e-214
-2.22086e-208
-3.64285e-214
-4.10312e-208
-6.72883e-214
-1.26312e-202
-2.22086e-208
-2.3342e-202
-4.10312e-208
-2.3342e-202
-4.10312e-208
-3.03682e-202
-5.33721e-208
-4.10312e-208
-6.72883e-214
-5.33721e-208
-8.75117e-214
-5.33721e-208
-8.75117e-214
-2.89501e-208
-4.74706e-214
-3.03682e-202
-5.33721e-208
-1.64713e-202
-2.89501e-208
-6.24884e-191
-1.24504e-196
-8.13319e-191
-1.62014e-196
-1.24504e-196
-2.3342e-202
-1.62014e-196
-3.03682e-202
-1.62014e-196
-3.03682e-202
-8.78688e-197
-1.64713e-202
-8.13319e-191
-1.62014e-196
-4.41078e-191
-8.78688e-197
5.67965e-171
1.32373e-176
-1.21524e-168
-3.0298e-174
1.32373e-176
2.92399e-182
-3.0298e-174
-7.15647e-180
-3.0298e-174
-7.15647e-180
-5.60741e-174
-1.32401e-179
-1.21524e-168
-3.0298e-174
-2.24996e-168
-5.60741e-174
2.92399e-182
6.11219e-188
-7.15647e-180
-1.59969e-185
6.11219e-188
1.20791e-193
-1.59969e-185
-3.3797e-191
-1.59969e-185
-3.3797e-191
-2.95862e-185
-6.24884e-191
-7.15647e-180
-1.59969e-185
-1.32401e-179
-2.95862e-185
-1.32401e-179
-2.95862e-185
-1.72412e-179
-3.85173e-185
-2.95862e-185
-6.24884e-191
-3.85173e-185
-8.13319e-191
-3.85173e-185
-8.13319e-191
-2.08873e-185
-4.41078e-191
-1.72412e-179
-3.85173e-185
-9.34896e-180
-2.08873e-185
-2.24996e-168
-5.60741e-174
-2.93163e-168
-7.30409e-174
-5.60741e-174
-1.32401e-179
-7.30409e-174
-1.72412e-179
-7.30409e-174
-1.72412e-179
-3.96035e-174
-9.34896e-180
-2.93163e-168
-7.30409e-174
-1.58943e-168
-3.96035e-174
4.73746e-214
7.19538e-220
8.7376e-214
1.32698e-219
7.19538e-220
1.00074e-225
1.32698e-219
1.84543e-225
1.32698e-219
1.84543e-225
1.02201e-219
1.42137e-225
8.7376e-214
1.32698e-219
6.72913e-214
1.02201e-219
1.00074e-225
1.25048e-231
1.84543e-225
2.30579e-231
1.25048e-231
1.35326e-237
2.30579e-231
2.49513e-237
2.30579e-231
2.49513e-237
1.77603e-231
1.92195e-237
1.84543e-225
2.30579e-231
1.42137e-225
1.77603e-231
1.42137e-225
1.77603e-231
7.72396e-226
9.6508e-232
1.77603e-231
1.92195e-237
9.6508e-232
1.04432e-237
9.6508e-232
1.04432e-237
2.16318e-234
2.19288e-240
7.72396e-226
9.6508e-232
1.84843e-228
2.16318e-234
6.72913e-214
1.02201e-219
3.65705e-214
5.554e-220
1.02201e-219
1.42137e-225
5.554e-220
7.72396e-226
5.554e-220
7.72396e-226
1.41928e-222
1.84843e-228
3.65705e-214
5.554e-220
9.98087e-217
1.41928e-222
1.35326e-237
1.15919e-243
2.49513e-237
2.13716e-243
1.15919e-243
5.32554e-250
2.13716e-243
9.8179e-250
2.13716e-243
9.8179e-250
1.64627e-243
7.56306e-250
2.49513e-237
2.13716e-243
1.92195e-237
1.64627e-243
5.32554e-250
-5.64405e-256
9.8179e-250
-1.04045e-255
-5.64405e-256
-1.97579e-261
-1.04045e-255
-3.64206e-261
-1.04045e-255
-3.64206e-261
-8.0152e-256
-2.80577e-261
9.8179e-250
-1.04045e-255
7.56306e-250
-8.0152e-256
7.56306e-250
-8.0152e-256
4.10919e-250
-4.35469e-256
-8.0152e-256
-2.80577e-261
-4.35469e-256
-1.52433e-261
-4.35469e-256
-1.52433e-261
-7.52618e-259
-2.47005e-264
4.10919e-250
-4.35469e-256
7.5768e-253
-7.52618e-259
1.92195e-237
1.64627e-243
1.04432e-237
8.94495e-244
1.64627e-243
7.56306e-250
8.94495e-244
4.10919e-250
8.94495e-244
4.10919e-250
1.75989e-246
7.5768e-253
1.04432e-237
8.94495e-244
2.19288e-240
1.75989e-246
2.19288e-240
1.75989e-246
-1.04119e-237
-8.91981e-244
1.75989e-246
7.5768e-253
-8.91981e-244
-4.09836e-250
-8.91981e-244
-4.09836e-250
-1.64619e-243
-7.56267e-250
-1.04119e-237
-8.91981e-244
-1.92185e-237
-1.64619e-243
7.5768e-253
-7.52618e-259
-4.09836e-250
4.34392e-256
-7.52618e-259
-2.47005e-264
4.34392e-256
1.5208e-261
4.34392e-256
1.5208e-261
8.01478e-256
2.80562e-261
-4.09836e-250
4.34392e-256
-7.56267e-250
8.01478e-256
-7.56267e-250
8.01478e-256
-9.82796e-250
1.04144e-255
8.01478e-256
2.80562e-261
1.04144e-255
3.6453e-261
1.04144e-255
3.6453e-261
5.65109e-256
1.97809e-261
-9.82796e-250