<VTKFile type="UnstructuredGrid" version="0.1" byte_order="LittleEndian">
<UnstructuredGrid>
<Piece NumberOfPoints="2048" NumberOfCells="512">
<Points>
<DataArray type="Float64" NumberOfComponents="3" format="ascii">
0 0 0
0.125 0 0
0 0.125 0
0.125 0.125 0
0.125 0 0
0.25 0 0
0.125 0.125 0
0.25 0.125 0
0.125 0.125 0
0.25 0.125 0
0.125 0.25 0
0.25 0.25 0
0 0.125 0
0.125 0.125 0
0 0.25 0
0.125 0.25 0
0.25 0 0
0.375 0 0
0.25 0.125 0
0.375 0.125 0
0.375 0 0
0.5 0 0
0.375 0.125 0
0.5 0.125 0
0.375 0.125 0
0.5 0.125 0
0.375 0.25 0
0.5 0.25 0
0.25 0.125 0
0.375 0.125 0
0.25 0.25 0
0.375 0.25 0
0.25 0.25 0
0.375 0.25 0
0.25 0.375 0
0.375 0.375 0
0.375 0.25 0
0.5 0.25 0
0.375 0.375 0
0.5 0.375 0
0.375 0.375 0
0.5 0.375 0
0.375 0.5 0
0.5 0.5 0
0.25 0.375 0
0.375 0.375 0
0.25 0.5 0
0.375 0.5 0
0 0.25 0
0.125 0.25 0
0 0.375 0
0.125 0.375 0
0.125 0.25 0
0.25 0.25 0
0.125 0.375 0
0.25 0.375 0
0.125 0.375 0
0.25 0.375 0
0.125 0.5 0
0.25 0.5 0
0 0.375 0
0.125 0.375 0
0 0.5 0
0.125 0.5 0
0.5 0 0
0.625 0 0
0.5 0.125 0
0.625 0.125 0
0.625 0 0
0.75 0 0
0.625 0.125 0
0.75 0.125 0
0.625 0.125 0
0.75 0.125 0
0.625 0.25 0
0.75 0.25 0
0.5 0.125 0
0.625 0.125 0
0.5 0.25 0
0.625 0.25 0
0.75 0 0
0.875 0 0
0.75 0.125 0
0.875 0.125 0
0.875 0 0
1 0 0
0.875 0.125 0
1 0.125 0
0.875 0.125 0
1 0.125 0
0.875 0.25 0
1 0.25 0
0.75 0.125 0
0.875 0.125 0
0.75 0.25 0
0.875 0.25 0
0.75 0.25 0
0.875 0.25 0
0.75 0.375 0
0.875 0.375 0
0.875 0.25 0
1 0.25 0
0.875 0.375 0
1 0.375 0
0.875 0.375 0
1 0.375 0
0.875 0.5 0
1 0.5 0
0.75 0.375 0
0.875 0.375 0
0.75 0.5 0
0.875 0.5 0
0.5 0.25 0
0.625 0.25 0
0.5 0.375 0
0.625 0.375 0
0.625 0.25 0
0.75 0.25 0
0.625 0.375 0
0.75 0.375 0
0.625 0.375 0
0.75 0.375 0
0.625 0.5 0
0.75 0.5 0
0.5 0.375 0
0.625 0.375 0
0.5 0.5 0
0.625 0.5 0
0.5 0.5 0
0.625 0.5 0
0.5 0.625 0
0.625 0.625 0
0.625 0.5 0
0.75 0.5 0
0.625 0.625 0
0.75 0.625 0
0.625 0.625 0
0.75 0.625 0
0.625 0.75 0
0.75 0.75 0
0.5 0.625 0
0.625 0.625 0
0.5 0.75 0
0.625 0.75 0
0.75 0.5 0
0.875 0.5 0
0.75 0.625 0
0.875 0.625 0
0.875 0.5 0
1 0.5 0
0.875 0.625 0
1 0.625 0
0.875 0.625 0
1 0.625 0
0.875 0.75 0
1 0.75 0
0.75 0.625 0
0.875 0.625 0
0.75 0.75 0
0.875 0.75 0
0.75 0.75 0
0.875 0.75 0
0.75 0.875 0
0.875 0.875 0
0.875 0.75 0
1 0.75 0
0.875 0.875 0
1 0.875 0
0.875 0.875 0
1 0.875 0
0.875 1 0
1 1 0
0.75 0.875 0
0.875 0.875 0
0.75 1 0
0.875 1 0
0.5 0.75 0
0.625 0.75 0
0.5 0.875 0
0.625 0.875 0
0.625 0.75 0
0.75 0.75 0
0.625 0.875 0
0.75 0.875 0
0.625 0.875 0
0.75 0.875 0
0.625 1 0
0.75 1 0
0.5 0.875 0
0.625 0.875 0
0.5 1 0
0.625 1 0
0 0.5 0
0.125 0.5 0
0 0.625 0
0.125 0.625 0
0.125 0.5 0
0.25 0.5 0
0.125 0.625 0
0.25 0.625 0
0.125 0.625 0
0.25 0.625 0
0.125 0.75 0
0.25 0.75 0
0 0.625 0
0.125 0.625 0
0 0.75 0
0.125 0.75 0
0.25 0.5 0
0.375 0.5 0
0.25 0.625 0
0.375 0.625 0
0.375 0.5 0
0.5 0.5 0
0.375 0.625 0
0.5 0.625 0
0.375 0.625 0
0.5 0.625 0
0.375 0.75 0
0.5 0.75 0
0.25 0.625 0
0.375 0.625 0
0.25 0.75 0
0.375 0.75 0
0.25 0.75 0
0.375 0.75 0
0.25 0.875 0
0.375 0.875 0
0.375 0.75 0
0.5 0.75 0
0.375 0.875 0
0.5 0.875 0
0.375 0.875 0
0.5 0.875 0
0.375 1 0
0.5 1 0
0.25 0.875 0
0.375 0.875 0
0.25 1 0
0.375 1 0
0 0.75 0
0.125 0.75 0
0 0.875 0
0.125 0.875 0
0.125 0.75 0
0.25 0.75 0
0.125 0.875 0
0.25 0.875 0
0.125 0.875 0
0.25 0.875 0
0.125 1 0
0.25 1 0
0 0.875 0
0.125 0.875 0
0 1 0
0.125 1 0
1 0 0
1.125 0 0
1 0.125 0
1.125 0.125 0
1.125 0 0
1.25 0 0
1.125 0.125 0
1.25 0.125 0
1.125 0.125 0
1.25 0.125 0
1.125 0.25 0
1.25 0.25 0
1 0.125 0
1.125 0.125 0
1 0.25 0
1.125 0.25 0
1.25 0 0
1.375 0 0
1.25 0.125 0
1.375 0.125 0
1.375 0 0
1.5 0 0
1.375 0.125 0
1.5 0.125 0
1.375 0.125 0
1.5 0.125 0
1.375 0.25 0
1.5 0.25 0
1.25 0.125 0
1.375 0.125 0
1.25 0.25 0
1.375 0.25 0
1.25 0.25 0
1.375 0.25 0
1.25 0.375 0
1.375 0.375 0
1.375 0.25 0
1.5 0.25 0
1.375 0.375 0
1.5 0.375 0
1.375 0.375 0
1.5 0.375 0
1.375 0.5 0
1.5 0.5 0
1.25 0.375 0
1.375 0.375 0
1.25 0.5 0
1.375 0.5 0
1 0.25 0
1.125 0.25 0
1 0.375 0
1.125 0.375 0
1.125 0.25 0
1.25 0.25 0
1.125 0.375 0
1.25 0.375 0
1.125 0.375 0
1.25 0.375 0
1.125 0.5 0
1.25 0.5 0
1 0.375 0
1.125 0.375 0
1 0.5 0
1.125 0.5 0
1.5 0 0
1.625 0 0
1.5 0.125 0
1.625 0.125 0
1.625 0 0
1.75 0 0
1.625 0.125 0
1.75 0.125 0
1.625 0.125 0
1.75 0.125 0
1.625 0.25 0
1.75 0.25 0
1.5 0.125 0
1.625 0.125 0
1.5 0.25 0
1.625 0.25 0
1.75 0 0
1.875 0 0
1.75 0.125 0
1.875 0.125 0
1.875 0 0
2 0 0
1.875 0.125 0
2 0.125 0
1.875 0.125 0
2 0.125 0
1.875 0.25 0
2 0.25 0
1.75 0.125 0
1.875 0.125 0
1.75 0.25 0
1.875 0.25 0
1.75 0.25 0
1.875 0.25 0
1.75 0.375 0
1.875 0.375 0
1.875 0.25 0
2 0.25 0
1.875 0.375 0
2 0.375 0
1.875 0.375 0
2 0.375 0
1.875 0.5 0
2 0.5 0
1.75 0.375 0
1.875 0.375 0
1.75 0.5 0
1.875 0.5 0
1.5 0.25 0
1.625 0.25 0
1.5 0.375 0
1.625 0.375 0
1.625 0.25 0
1.75 0.25 0
1.625 0.375 0
1.75 0.375 0
1.625 0.375 0
1.75 0.375 0
1.625 0.5 0
1.75 0.5 0
1.5 0.375 0
1.625 0.375 0
1.5 0.5 0
1.625 0.5 0
1.5 0.5 0
1.625 0.5 0
1.5 0.625 0
1.625 0.625 0
1.625 0.5 0
1.75 0.5 0
1.625 0.625 0
1.75 0.625 0
1.625 0.625 0
1.75 0.625 0
1.625 0.75 0
1.75 0.75 0
1.5 0.625 0
1.625 0.625 0
1.5 0.75 0
1.625 0.75 0
1.75 0.5 0
1.875 0.5 0
1.75 0.625 0
1.875 0.625 0
1.875 0.5 0
2 0.5 0
1.875 0.625 0
2 0.625 0
1.875 0.625 0
2 0.625 0
1.875 0.75 0
2 0.75 0
1.75 0.625 0
1.875 0.625 0
1.75 0.75 0
1.875 0.75 0
1.75 0.75 0
1.875 0.75 0
1.75 0.875 0
1.875 0.875 0
1.875 0.75 0
2 0.75 0
1.875 0.875 0
2 0.875 0
1.875 0.875 0
2 0.875 0
1.875 1 0
2 1 0
1.75 0.875 0
1.875 0.875 0
1.75 1 0
1.875 1 0
1.5 0.75 0
1.625 0.75 0
1.5 0.875 0
1.625 0.875 0
1.625 0.75 0
1.75 0.75 0
1.625 0.875 0
1.75 0.875 0
1.625 0.875 0
1.75 0.875 0
1.625 1 0
1.75 1 0
1.5 0.875 0
1.625 0.875 0
1.5 1 0
1.625 1 0
1 0.5 0
1.125 0.5 0
1 0.625 0
1.125 0.625 0
1.125 0.5 0
1.25 0.5 0
1.125 0.625 0
1.25 0.625 0
1.125 0.625 0
1.25 0.625 0
1.125 0.75 0
1.25 0.75 0
1 0.625 0
1.125 0.625 0
1 0.75 0
1.125 0.75 0
1.25 0.5 0
1.375 0.5 0
1.25 0.625 0
1.375 0.625 0
1.375 0.5 0
1.5 0.5 0
1.375 0.625 0
1.5 0.625 0
1.375 0.625 0
1.5 0.625 0
1.375 0.75 0
1.5 0.75 0
1.25 0.625 0
1.375 0.625 0
1.25 0.75 0
1.375 0.75 0
1.25 0.75 0
1.375 0.75 0
1.25 0.875 0
1.375 0.875 0
1.375 0.75 0
1.5 0.75 0
1.375 0.875 0
1.5 0.875 0
1.375 0.875 0
1.5 0.875 0
1.375 1 0
1.5 1 0
1.25 0.875 0
1.375 0.875 0
1.25 1 0
1.375 1 0
1 0.75 0
1.125 0.75 0
1 0.875 0
1.125 0.875 0
1.125 0.75 0
1.25 0.75 0
1.125 0.875 0
1.25 0.875 0
1.125 0.875 0
1.25 0.875 0
1.125 1 0
1.25 1 0
1 0.875 0
1.125 0.875 0
1 1 0
1.125 1 0
2 0 0
2.125 0 0
2 0.125 0
2.125 0.125 0
2.125 0 0
2.25 0 0
2.125 0.125 0
2.25 0.125 0
2.125 0.125 0
2.25 0.125 0
2.125 0.25 0
2.25 0.25 0
2 0.125 0
2.125 0.125 0
2 0.25 0
2.125 0.25 0
2.25 0 0
2.375 0 0
2.25 0.125 0
2.375 0.125 0
2.375 0 0
2.5 0 0
2.375 0.125 0
2.5 0.125 0
2.375 0.125 0
2.5 0.125 0
2.375 0.25 0
2.5 0.25 0
2.25 0.125 0
2.375 0.125 0
2.25 0.25 0
2.375 0.25 0
2.25 0.25 0
2.375 0.25 0
2.25 0.375 0
2.375 0.375 0
2.375 0.25 0
2.5 0.25 0
2.375 0.375 0
2.5 0.375 0
2.375 0.375 0
2.5 0.375 0
2.375 0.5 0
2.5 0.5 0
2.25 0.375 0
2.375 0.375 0
2.25 0.5 0
2.375 0.5 0
2 0.25 0
2.125 0.25 0
2 0.375 0
2.125 0.375 0
2.125 0.25 0
2.25 0.25 0
2.125 0.375 0
2.25 0.375 0
2.125 0.375 0
2.25 0.375 0
2.125 0.5 0
2.25 0.5 0
2 0.375 0
2.125 0.375 0
2 0.5 0
2.125 0.5 0
2.5 0 0
2.625 0 0
2.5 0.125 0
2.625 0.125 0
2.625 0 0
2.75 0 0
2.625 0.125 0
2.75 0.125 0
2.625 0.125 0
2.75 0.125 0
2.625 0.25 0
2.75 0.25 0
2.5 0.125 0
2.625 0.125 0
2.5 0.25 0
2.625 0.25 0
2.75 0 0
2.875 0 0
2.75 0.125 0
2.875 0.125 0
2.875 0 0
3 0 0
2.875 0.125 0
3 0.125 0
2.875 0.125 0
3 0.125 0
2.875 0.25 0
3 0.25 0
2.75 0.125 0
2.875 0.125 0
2.75 0.25 0
2.875 0.25 0
2.75 0.25 0
2.875 0.25 0
2.75 0.375 0
2.875 0.375 0
2.875 0.25 0
3 0.25 0
2.875 0.375 0
3 0.375 0
2.875 0.375 0
3 0.375 0
2.875 0.5 0
3 0.5 0
2.75 0.375 0
2.875 0.375 0
2.75 0.5 0
2.875 0.5 0
2.5 0.25 0
2.625 0.25 0
2.5 0.375 0
2.625 0.375 0
2.625 0.25 0
2.75 0.25 0
2.625 0.375 0
2.75 0.375 0
2.625 0.375 0
2.75 0.375 0
2.625 0.5 0
2.75 0.5 0
2.5 0.375 0
2.625 0.375 0
2.5 0.5 0
2.625 0.5 0
2.5 0.5 0
2.625 0.5 0
2.5 0.625 0
2.625 0.625 0
2.625 0.5 0
2.75 0.5 0
2.625 0.625 0
2.75 0.625 0
2.625 0.625 0
2.75 0.625 0
2.625 0.75 0
2.75 0.75 0
2.5 0.625 0
2.625 0.625 0
2.5 0.75 0
2.625 0.75 0
2.75 0.5 0
2.875 0.5 0
2.75 0.625 0
2.875 0.625 0
2.875 0.5 0
3 0.5 0
2.875 0.625 0
3 0.625 0
2.875 0.625 0
3 0.625 0
2.875 0.75 0
3 0.75 0
2.75 0.625 0
2.875 0.625 0
2.75 0.75 0
2.875 0.75 0
2.75 0.75 0
2.875 0.75 0
2.75 0.875 0
2.875 0.875 0
2.875 0.75 0
3 0.75 0
2.875 0.875 0
3 0.875 0
2.875 0.875 0
3 0.875 0
2.875 1 0
3 1 0
2.75 0.875 0
2.875 0.875 0
2.75 1 0
2.875 1 0
2.5 0.75 0
2.625 0.75 0
2.5 0.875 0
2.625 0.875 0
2.625 0.75 0
2.75 0.75 0
2.625 0.875 0
2.75 0.875 0
2.625 0.875 0
2.75 0.875 0
2.625 1 0
2.75 1 0
2.5 0.875 0
2.625 0.875 0
2.5 1 0
2.625 1 0
2 0.5 0
2.125 0.5 0
2 0.625 0
2.125 0.625 0
2.125 0.5 0
2.25 0.5 0
2.125 0.625 0
2.25 0.625 0
2.125 0.625 0
2.25 0.625 0
2.125 0.75 0
2.25 0.75 0
2 0.625 0
2.125 0.625 0
2 0.75 0
2.125 0.75 0
2.25 0.5 0
2.375 0.5 0
2.25 0.625 0
2.375 0.625 0
2.375 0.5 0
2.5 0.5 0
2.375 0.625 0
2.5 0.625 0
2.375 0.625 0
2.5 0.625 0
2.375 0.75 0
2.5 0.75 0
2.25 0.625 0
2.375 0.625 0
2.25 0.75 0
2.375 0.75 0
2.25 0.75 0
2.375 0.75 0
2.25 0.875 0
2.375 0.875 0
2.375 0.75 0
2.5 0.75 0
2.375 0.875 0
2.5 0.875 0
2.375 0.875 0
2.5 0.875 0
2.375 1 0
2.5 1 0
2.25 0.875 0
2.375 0.875 0
2.25 1 0
2.375 1 0
2 0.75 0
2.125 0.75 0
2 0.875 0
2.125 0.875 0
2.125 0.75 0
2.25 0.75 0
2.125 0.875 0
2.25 0.875 0
2.125 0.875 0
2.25 0.875 0
2.125 1 0
2.25 1 0
2 0.875 0
2.125 0.875 0
2 1 0
2.125 1 0
3 0 0
3.125 0 0
3 0.125 0
3.125 0.125 0
3.125 0 0
3.25 0 0
3.125 0.125 0
3.25 0.125 0
3.125 0.125 0
3.25 0.125 0
3.125 0.25 0
3.25 0.25 0
3 0.125 0
3.125 0.125 0
3 0.25 0
3.125 0.25 0
3.25 0 0
3.375 0 0
3.25 0.125 0
3.375 0.125 0
3.375 0 0
3.5 0 0
3.375 0.125 0
3.5 0.125 0
3.375 0.125 0
3.5 0.125 0
3.375 0.25 0
3.5 0.25 0
3.25 0.125 0
3.375 0.125 0
3.25 0.25 0
3.375 0.25 0
3.25 0.25 0
3.375 0.25 0
3.25 0.375 0
3.375 0.375 0
3.375 0.25 0
3.5 0.25 0
3.375 0.375 0
3.5 0.375 0
3.375 0.375 0
3.5 0.375 0
3.375 0.5 0
3.5 0.5 0
3.25 0.375 0
3.375 0.375 0
3.25 0.5 0
[...]
<CellData Scalars="attribute">
<DataArray type="Int32" Name="attribute" format="ascii">
1
1
1
1
1
1
1
1
1
1
1
1
1
1
1
1
1
1
1
1
1
1
1
1
1
1
1
1
1
1
1
1
1
1
1
1
1
1
1
1
1
1
1
1
1
1
1
1
1
1
1
1
1
1
1
1
1
1
1
1
1
1
1
1
1
1
1
1
1
1
1
1
1
1
1
1
1
1
1
1
1
1
1
1
1
1
1
1
1
1
1
1
1
1
1
1
1
1
1
1
1
1
1
1
1
1
1
1
1
1
1
1
1
1
1
1
1
1
1
1
1
1
1
1
1
1
1
1
1
1
1
1
1
1
1
1
1
1
1
1
1
1
1
1
1
1
1
1
1
1
1
1
1
1
1
1
1
1
1
1
1
1
1
1
1
1
1
1
1
1
1
1
1
1
1
1
1
1
1
1
1
1
1
1
1
1
1
1
1
1
1
1
1
1
1
1
1
1
1
1
1
1
1
1
1
1
1
1
1
1
1
1
1
1
1
1
1
1
1
1
1
1
1
1
1
1
1
1
1
1
1
1
1
1
1
1
1
1
1
1
1
1
1
1
1
1
1
1
1
1
1
1
1
1
1
1
2
2
2
2
2
2
2
2
2
2
2
2
2
2
2
2
2
2
2
2
2
2
2
2
2
2
2
2
2
2
2
2
2
2
2
2
2
2
2
2
2
2
2
2
2
2
2
2
2
2
2
2
2
2
2
2
2
2
2
2
2
2
2
2
2
2
2
2
2
2
2
2
2
2
2
2
2
2
2
2
2
2
2
2
2
2
2
2
2
2
2
2
2
2
2
2
2
2
2
2
2
2
2
2
2
2
2
2
2
2
2
2
2
2
2
2
2
2
2
2
2
2
2
2
2
2
2
2
2
2
2
2
2
2
2
2
2
2
2
2
2
2
2
2
2
2
2
2
2
2
2
2
2
2
2
2
2
2
2
2
2
2
2
2
2
2
2
2
2
2
2
2
2
2
2
2
2
2
2
2
2
2
2
2
2
2
2
2
2
2
2
2
2
2
2
2
2
2
2
2
2
2
2
2
2
2
2
2
2
2
2
2
2
2
2
2
2
2
2
2
2
2
2
2
2
2
2
2
2
2
2
2
2
2
2
2
2
2
2
2
2
2
2
2
2
2
2
2
2
2
2
2
2
2
2
2
</DataArray>
</CellData>
<PointData >
<DataArray type="Float64" Name="Pressure" NumberOfComponents="1" format="ascii" >
-0.000257451
-2.64578e-07
-0.000421292
-4.37973e-07
-2.64578e-07
1.12489e-11
-4.37973e-07
1.948e-11
-4.37973e-07
1.948e-11
-2.94031e-07
1.32284e-11
-0.000421292
-4.37973e-07
-0.000280864
-2.94031e-07
1.12489e-11
-3.0586e-16
1.948e-11
-5.46087e-16
-3.0586e-16
8.46897e-21
-5.46087e-16
1.56765e-20
-5.46087e-16
1.56765e-20
-3.80232e-16
1.1211e-20
1.948e-11
-5.46087e-16
1.32284e-11
-3.80232e-16
1.32284e-11
-3.80232e-16
6.77906e-12
-1.94294e-16
-3.80232e-16
1.1211e-20
-1.94294e-16
5.73474e-21
-1.94294e-16
5.73474e-21
-6.43074e-18
1.81904e-22
6.77906e-12
-1.94294e-16
2.38954e-13
-6.43074e-18
-0.000280864
-2.94031e-07
-0.000140435
-1.49307e-07
-2.94031e-07
1.32284e-11
-1.49307e-07
6.77906e-12
-1.49307e-07
6.77906e-12
-3.30678e-09
2.38954e-13
-0.000140435
-1.49307e-07
-4.06908e-09
-3.30678e-09
8.46897e-21
-1.21866e-25
1.56765e-20
-2.33791e-25
-1.21866e-25
3.04298e-30
-2.33791e-25
5.87009e-30
-2.33791e-25
5.87009e-30
-1.73192e-25
4.41079e-30
1.56765e-20
-2.33791e-25
1.1211e-20
-1.73192e-25
3.04298e-30
-1.8544e-35
5.87009e-30
-3.94414e-35
-1.8544e-35
7.1014e-40
-3.94414e-35
1.3904e-39
-3.94414e-35
1.3904e-39
-3.18888e-35
1.07669e-39
5.87009e-30
-3.94414e-35
4.41079e-30
-3.18888e-35
4.41079e-30
-3.18888e-35
2.29309e-30
-1.6814e-35
-3.18888e-35
1.07669e-39
-1.6814e-35
5.71779e-40
-1.6814e-35
5.71779e-40
-4.84675e-37
1.45579e-41
2.29309e-30
-1.6814e-35
6.57673e-32
-4.84675e-37
1.1211e-20
-1.73192e-25
5.73474e-21
-8.91366e-26
-1.73192e-25
4.41079e-30
-8.91366e-26
2.29309e-30
-8.91366e-26
2.29309e-30
-2.72208e-27
6.57673e-32
5.73474e-21
-8.91366e-26
1.81904e-22
-2.72208e-27
1.81904e-22
-2.72208e-27
-5.44836e-21
8.48938e-26
-2.72208e-27
6.57673e-32
8.48938e-26
-2.19275e-30
8.48938e-26
-2.19275e-30
1.72571e-25
-4.39912e-30
-5.44836e-21
8.48938e-26
-1.11583e-20
1.72571e-25
6.57673e-32
-4.84675e-37
-2.19275e-30
1.60797e-35
-4.84675e-37
1.45579e-41
1.60797e-35
-5.50195e-40
1.60797e-35
-5.50195e-40
3.18027e-35
-1.07494e-39
-2.19275e-30
1.60797e-35
-4.39912e-30
3.18027e-35
-4.39912e-30
3.18027e-35
-5.96376e-30
4.00421e-35
3.18027e-35
-1.07494e-39
4.00421e-35
-1.40985e-39
4.00421e-35
-1.40985e-39
1.89487e-35
-7.23885e-40
-5.96376e-30
4.00421e-35
-3.11147e-30
1.89487e-35
-1.11583e-20
1.72571e-25
-1.59559e-20
2.3777e-25
1.72571e-25
-4.39912e-30
2.3777e-25
-5.96376e-30
2.3777e-25
-5.96376e-30
1.24823e-25
-3.11147e-30
-1.59559e-20
2.3777e-25
-8.69163e-21
1.24823e-25
-4.06908e-09
-3.30678e-09
0.000140428
1.4397e-07
-3.30678e-09
2.38954e-13
1.4397e-07
-6.39426e-12
1.4397e-07
-6.39426e-12
2.92524e-07
-1.31227e-11
0.000140428
1.4397e-07
0.000280862
2.92524e-07
2.38954e-13
-6.43074e-18
-6.39426e-12
1.84042e-16
-6.43074e-18
1.81904e-22
1.84042e-16
-5.44836e-21
1.84042e-16
-5.44836e-21
3.77848e-16
-1.11583e-20
-6.39426e-12
1.84042e-16
-1.31227e-11
3.77848e-16
-1.31227e-11
3.77848e-16
-1.98404e-11
5.56248e-16
3.77848e-16
-1.11583e-20
5.56248e-16
-1.59559e-20
5.56248e-16
-1.59559e-20
3.1451e-16
-8.69163e-21
-1.98404e-11
5.56248e-16
-1.16179e-11
3.1451e-16
0.000280862
2.92524e-07
0.000421298
4.42901e-07
2.92524e-07
-1.31227e-11
4.42901e-07
-1.98404e-11
4.42901e-07
-1.98404e-11
2.698e-07
-1.16179e-11
0.000421298
4.42901e-07
0.000257457
2.698e-07
7.1014e-40
7.31985e-46
1.3904e-39
2.65838e-46
7.31985e-46
1.29411e-49
2.65838e-46
2.51124e-49
2.65838e-46
2.51124e-49
-4.74325e-46
1.95985e-49
1.3904e-39
2.65838e-46
1.07669e-39
-4.74325e-46
1.29411e-49
8.20688e-55
2.51124e-49
1.38885e-54
8.20688e-55
1.96401e-59
1.38885e-54
3.74264e-59
1.38885e-54
3.74264e-59
9.58562e-55
2.90505e-59
2.51124e-49
1.38885e-54
1.95985e-49
9.58562e-55
1.95985e-49
9.58562e-55
1.05625e-49
4.99635e-55
9.58562e-55
2.90505e-59
4.99635e-55
1.57516e-59
4.99635e-55
1.57516e-59
8.3996e-57
2.99622e-61
1.05625e-49
4.99635e-55
2.34008e-51
8.3996e-57
1.07669e-39
-4.74325e-46
5.71779e-40
-3.22127e-46
-4.74325e-46
1.95985e-49
-3.22127e-46
1.05625e-49
-3.22127e-46
1.05625e-49
-1.81865e-47
2.34008e-51
5.71779e-40
-3.22127e-46
1.45579e-41
-1.81865e-47
1.96401e-59
1.74174e-64
3.74264e-59
3.12216e-64
1.74174e-64
2.43649e-69
3.12216e-64
4.57628e-69
3.12216e-64
4.57628e-69
2.29381e-64
3.52771e-69
3.74264e-59
3.12216e-64
2.90505e-59
2.29381e-64
2.43649e-69
2.26125e-74
4.57628e-69
4.12879e-74
2.26125e-74
2.40403e-79
4.12879e-74
4.47818e-79
4.12879e-74
4.47818e-79
3.10151e-74
3.4389e-79
4.57628e-69
4.12879e-74
3.52771e-69
3.10151e-74
3.52771e-69
3.10151e-74
1.9154e-69
1.66747e-74
3.10151e-74
3.4389e-79
1.66747e-74
1.86758e-79
1.66747e-74
1.86758e-79
2.39819e-76
2.61615e-81
1.9154e-69
1.66747e-74
3.12033e-71
2.39819e-76
2.90505e-59
2.29381e-64
1.57516e-59
1.22137e-64
2.29381e-64
3.52771e-69
1.22137e-64
1.9154e-69
1.22137e-64
1.9154e-69
1.96253e-66
3.12033e-71
1.57516e-59
1.22137e-64
2.99622e-61
1.96253e-66
2.99622e-61
1.96253e-66
-1.53203e-59
-1.1936e-64
1.96253e-66
3.12033e-71
-1.1936e-64
-1.8708e-69
-1.1936e-64
-1.8708e-69
-2.29456e-64
-3.52648e-69
-1.53203e-59
-1.1936e-64
-2.90322e-59
-2.29456e-64
3.12033e-71
2.39819e-76
-1.8708e-69
-1.63356e-74
2.39819e-76
2.61615e-81
-1.63356e-74
-1.83035e-79
-1.63356e-74
-1.83035e-79
-3.102e-74
-3.43829e-79
-1.8708e-69
-1.63356e-74
-3.52648e-69
-3.102e-74
-3.52648e-69
-3.102e-74
-4.61838e-69
-4.16454e-74
-3.102e-74
-3.43829e-79
-4.16454e-74
-4.51414e-79
-4.16454e-74
-4.51414e-79
-2.28672e-74
-2.42954e-79
-4.61838e-69
-4.16454e-74
-2.46632e-69
-2.28672e-74
-2.90322e-59
-2.29456e-64
-3.78217e-59
-3.15312e-64
-2.29456e-64
-3.52648e-69
-3.15312e-64
-4.61838e-69
-3.15312e-64
-4.61838e-69
-1.76408e-64
-2.46632e-69
-3.78217e-59
-3.15312e-64
-1.99191e-59
-1.76408e-64
1.45579e-41
-1.81865e-47
-5.50195e-40
2.93671e-46
-1.81865e-47
2.34008e-51
2.93671e-46
-1.02219e-49
2.93671e-46
-1.02219e-49
4.65254e-46
-1.95782e-49
-5.50195e-40
2.93671e-46
-1.07494e-39
4.65254e-46
2.34008e-51
8.3996e-57
-1.02219e-49
-4.87807e-55
8.3996e-57
2.99622e-61
-4.87807e-55
-1.53203e-59
-4.87807e-55
-1.53203e-59
-9.5945e-55
-2.90322e-59
-1.02219e-49
-4.87807e-55
-1.95782e-49
-9.5945e-55
-1.95782e-49
-9.5945e-55
-2.54177e-49
-1.40452e-54
-9.5945e-55
-2.90322e-59
-1.40452e-54
-3.78217e-59
-1.40452e-54
-3.78217e-59
-8.32455e-55
-1.99191e-59
-2.54177e-49
-1.40452e-54
-1.31556e-49
-8.32455e-55
-1.07494e-39
4.65254e-46
-1.40985e-39
-2.67292e-46
4.65254e-46
-1.95782e-49
-2.67292e-46
-2.54177e-49
-2.67292e-46
-2.54177e-49
-7.3922e-46
-1.31556e-49
-1.40985e-39
-2.67292e-46
-7.23885e-40
-7.3922e-46
2.40403e-79
2.10449e-84
4.47818e-79
3.87094e-84
2.10449e-84
1.87193e-89
3.87094e-84
3.47274e-89
3.87094e-84
3.47274e-89
2.93869e-84
2.66361e-89
4.47818e-79
3.87094e-84
3.4389e-79
2.93869e-84
1.87193e-89
1.49242e-94
3.47274e-89
2.75337e-94
1.49242e-94
1.15745e-99
2.75337e-94
2.14302e-99
2.75337e-94
2.14302e-99
2.10191e-94
1.64394e-99
3.47274e-89
2.75337e-94
2.66361e-89
2.10191e-94
2.66361e-89
2.10191e-94
1.44685e-89
1.13927e-94
2.10191e-94
1.64394e-99
1.13927e-94
8.93255e-100
1.13927e-94
8.93255e-100
1.26694e-96
9.38518e-102
1.44685e-89
1.13927e-94
1.75178e-91
1.26694e-96
3.4389e-79
2.93869e-84
1.86758e-79
1.58823e-84
2.93869e-84
2.66361e-89
1.58823e-84
1.44685e-89
1.58823e-84
1.44685e-89
2.01419e-86
1.75178e-91
1.86758e-79
1.58823e-84
2.61615e-81
2.01419e-86
1.15745e-99
8.33085e-105
2.14302e-99
1.53871e-104
8.33085e-105
5.7483e-110
1.53871e-104
1.06322e-109
1.53871e-104
1.06322e-109
1.17831e-104
8.16118e-110
2.14302e-99
1.53871e-104
1.64394e-99
1.17831e-104
5.7483e-110
3.73773e-115
1.06322e-109
6.90575e-115
3.73773e-115
2.32096e-120
6.90575e-115
4.29033e-120
6.90575e-115
4.29033e-120
5.29809e-115
3.29552e-120
1.06322e-109
6.90575e-115
8.16118e-110
5.29809e-115
8.16118e-110
5.29809e-115
4.4358e-110
2.87865e-115
5.29809e-115
3.29552e-120
2.87865e-115
1.79158e-120
2.87865e-115
1.79158e-120
2.44769e-117
1.42775e-122
4.4358e-110
2.87865e-115
4.05535e-112
2.44769e-117
1.64394e-99
1.17831e-104
8.93255e-100
6.39676e-105
1.17831e-104
8.16118e-110
6.39676e-105
4.4358e-110
6.39676e-105
4.4358e-110
6.22311e-107
4.05535e-112
8.93255e-100
6.39676e-105
9.38518e-102
6.22311e-107
9.38518e-102
6.22311e-107
-8.79957e-100
-6.30877e-105
6.22311e-107
4.05535e-112
-6.30877e-105
-4.37838e-110
-6.30877e-105
-4.37838e-110
-1.17832e-104
-8.16096e-110
-8.79957e-100
-6.30877e-105
-1.64386e-99
-1.17832e-104
4.05535e-112
2.44769e-117
-4.37838e-110
-2.84403e-115
2.44769e-117
1.42775e-122
-2.84403e-115
-1.77137e-120
-2.84403e-115
-1.77137e-120
-5.29808e-115
-3.29545e-120
-4.37838e-110
-2.84403e-115
-8.16096e-110
-5.29808e-115
-8.16096e-110
-5.29808e-115
-1.0689e-109
-6.94026e-115
-5.29808e-115
-3.29545e-120
-6.94026e-115
-4.31032e-120
-6.94026e-115
-4.31032e-120
-3.76216e-115
-2.33513e-120
-1.0689e-109
-6.94026e-115
-5.78855e-110
-3.76216e-115
-1.64386e-99
-1.17832e-104
-2.15614e-99
-1.54753e-104
-1.17832e-104
-8.16096e-110
-1.54753e-104
-1.0689e-109
-1.54753e-104
-1.0689e-109
-8.3933e-105
-5.78855e-110
-2.15614e-99
-1.54753e-104
-1.16675e-99
-8.3933e-105
2.61615e-81
2.01419e-86
-1.83035e-79
-1.55975e-84
2.01419e-86
1.75178e-91
-1.55975e-84
-1.422e-89
-1.55975e-84
-1.422e-89
-2.93892e-84
-2.66337e-89
-1.83035e-79
-1.55975e-84
-3.43829e-79
-2.93892e-84
1.75178e-91
1.26694e-96
-1.422e-89
-1.12136e-94
1.26694e-96
9.38518e-102
-1.12136e-94
-8.79957e-100
-1.12136e-94
-8.79957e-100
-2.10198e-94
-1.64386e-99
-1.422e-89
-1.12136e-94
-2.66337e-89
-2.10198e-94
-2.66337e-89
-2.10198e-94
-3.49709e-89
-2.77148e-94
-2.10198e-94
-1.64386e-99
-2.77148e-94
-2.15614e-99
-2.77148e-94
-2.15614e-99
-1.50524e-94
-1.16675e-99
-3.49709e-89
-2.77148e-94
-1.8892e-89
-1.50524e-94
-3.43829e-79
-2.93892e-84
-4.51414e-79
-3.90015e-84
-2.93892e-84
-2.66337e-89
-3.90015e-84
-3.49709e-89
-3.90015e-84
-3.49709e-89
-2.12522e-84
-1.8892e-89
-4.51414e-79
-3.90015e-84
-2.42954e-79
-2.12522e-84
2.32096e-120
1.36835e-125
4.29033e-120
2.52802e-125
1.36835e-125
7.70396e-131
2.52802e-125
1.42347e-130
2.52802e-125
1.42347e-130
1.94177e-125
1.0941e-130
4.29033e-120
2.52802e-125
3.29552e-120
1.94177e-125
7.70396e-131
4.1355e-136
1.42347e-130
7.63883e-136
4.1355e-136
2.12257e-141
7.63883e-136
3.92052e-141
7.63883e-136
3.92052e-141
5.87201e-136
3.01492e-141
1.42347e-130
7.63883e-136
1.0941e-130
5.87201e-136
1.0941e-130
5.87201e-136
5.94865e-131
3.19245e-136
5.87201e-136
3.01492e-141
3.19245e-136
1.63928e-141
3.19245e-136
1.63928e-141
2.07291e-138
9.95803e-144
5.94865e-131
3.19245e-136
4.13717e-133
2.07291e-138
3.29552e-120
1.94177e-125
1.79158e-120
1.05549e-125
1.94177e-125
1.0941e-130
1.05549e-125
5.94865e-131
1.05549e-125
5.94865e-131
7.84229e-128
4.13717e-133
1.79158e-120
1.05549e-125
1.42775e-122
7.84229e-128
2.12257e-141
1.04155e-146
3.92052e-141
1.9234e-146
1.04155e-146
4.89394e-152
1.9234e-146
9.03662e-152
1.9234e-146
9.03662e-152
1.47934e-146
6.9521e-152
3.92052e-141
1.9234e-146
3.01492e-141
1.47934e-146
4.89394e-152
2.2028e-157
9.03662e-152
4.06678e-157
2.2028e-157
9.50729e-163
4.06678e-157
1.75503e-162
4.06678e-157
1.75503e-162
3.12913e-157
1.35062e-162
9.03662e-152
4.06678e-157
6.9521e-152
3.12913e-157
6.9521e-152
3.12913e-157
3.77992e-152
1.70126e-157
3.12913e-157
1.35062e-162
1.70126e-157
7.34298e-163
1.70126e-157
7.34298e-163
8.44411e-160
3.40926e-165
3.77992e-152
1.70126e-157
2.00686e-154
8.44411e-160
3.01492e-141
1.47934e-146
1.63928e-141
8.04318e-147
1.47934e-146
6.9521e-152
8.04318e-147
3.77992e-152
8.04318e-147
3.77992e-152
4.56531e-149
2.00686e-154
1.63928e-141
8.04318e-147
9.95803e-144
4.56531e-149
9.95803e-144
4.56531e-149
-1.62518e-141
-7.97852e-147
4.56531e-149
2.00686e-154
-7.97852e-147
-3.75149e-152
-7.97852e-147
-3.75149e-152
-1.4793e-146
-6.9519e-152
-1.62518e-141
-7.97852e-147
-3.01485e-141
-1.4793e-146
2.00686e-154
8.44411e-160
-3.75149e-152
-1.6893e-157
8.44411e-160
3.40926e-165
-1.6893e-157
-7.29465e-163
-1.6893e-157
-7.29465e-163
-3.12903e-157
-1.35058e-162
-3.75149e-152
-1.6893e-157
-6.9519e-152
-3.12903e-157
-6.9519e-152
-3.12903e-157
-9.06455e-152
-4.07851e-157
-3.12903e-157
-1.35058e-162
-4.07851e-157
-1.75975e-162
-4.07851e-157
-1.75975e-162
-2.21111e-157
-9.54078e-163
-9.06455e-152
-4.07851e-157
-4.91371e-152
-2.21111e-157
-3.01485e-141
-1.4793e-146
-3.93442e-141
-1.92977e-146
-1.4793e-146
-6.9519e-152
-1.92977e-146
-9.06455e-152
-1.92977e-146
-9.06455e-152
-1.04606e-146
-4.91371e-152
-3.93442e-141
-1.92977e-146
-2.13241e-141
-1.04606e-146
1.42775e-122
7.84229e-128
-1.77137e-120
-1.04439e-125
7.84229e-128
4.13717e-133
-1.04439e-125
-5.89008e-131
-1.04439e-125
-5.89008e-131
-1.94175e-125
-1.09407e-130
-1.77137e-120
-1.04439e-125
-3.29545e-120
-1.94175e-125
4.13717e-133
2.07291e-138
-5.89008e-131
-3.1631e-136
2.07291e-138
9.95803e-144
-3.1631e-136
-1.62518e-141
-3.1631e-136
-1.62518e-141
-5.8719e-136
-3.01485e-141
-5.89008e-131
-3.1631e-136
-1.09407e-130
-5.8719e-136
-1.09407e-130
-5.8719e-136
-1.42926e-130
-7.66784e-136
-5.8719e-136
-3.01485e-141
-7.66784e-136
-3.93442e-141
-7.66784e-136
-3.93442e-141
-4.15604e-136
-2.13241e-141
-1.42926e-130
-7.66784e-136
-7.74494e-131
-4.15604e-136
-3.29545e-120
-1.94175e-125
-4.31032e-120
-2.53903e-125
-1.94175e-125
-1.09407e-130
-2.53903e-125
-1.42926e-130
-2.53903e-125
-1.42926e-130
-1.37615e-125
-7.74494e-131
-4.31032e-120
-2.53903e-125
-2.33513e-120
-1.37615e-125
9.50729e-163
3.93664e-168
1.75503e-162
7.26595e-168
3.93664e-168
1.56488e-173
7.26595e-168
2.888e-173
7.26595e-168
2.888e-173
5.59236e-168
2.22308e-173
1.75503e-162
7.26595e-168
1.35062e-162
5.59236e-168
1.56488e-173
5.97477e-179
2.888e-173
1.10252e-178
5.97477e-179
2.19212e-184
1.10252e-178
4.04466e-184
1.10252e-178
4.04466e-184
8.48765e-179
3.11405e-184
2.888e-173
1.10252e-178
2.22308e-173
8.48765e-179
2.22308e-173
8.48765e-179
1.20853e-173
4.61389e-179
8.48765e-179
3.11405e-184
4.61389e-179
1.69272e-184
4.61389e-179
1.69272e-184
1.75337e-181
6.0192e-187
1.20853e-173
4.61389e-179
4.90929e-176
1.75337e-181
1.35062e-162
5.59236e-168
7.34298e-163
3.04028e-168
5.59236e-168
2.22308e-173
3.04028e-168
1.20853e-173
3.04028e-168
1.20853e-173
1.32011e-170
4.90929e-176
7.34298e-163
3.04028e-168
3.40926e-165
1.32011e-170
2.19212e-184
7.73163e-190
4.04466e-184
1.4264e-189
7.73163e-190
2.62235e-195
1.4264e-189
4.83746e-195
1.4264e-189
4.83746e-195
1.0983e-189
3.72503e-195
4.04466e-184
1.4264e-189
3.11405e-184
1.0983e-189
2.62235e-195
8.55525e-201
4.83746e-195
1.57804e-200
8.55525e-201
2.68528e-206
1.57804e-200
4.95264e-206
1.57804e-200
4.95264e-206
1.21523e-200
3.8142e-206
4.83746e-195
1.57804e-200
3.72503e-195
1.21523e-200
3.72503e-195
1.21523e-200
2.02463e-195
6.6047e-201
1.21523e-200
3.8142e-206
6.6047e-201
2.07289e-206
6.6047e-201
2.07289e-206
1.92538e-203
5.65728e-209
2.02463e-195
6.6047e-201
6.30546e-198
1.92538e-203
3.11405e-184
1.0983e-189
1.69272e-184
5.96977e-190
1.0983e-189
3.72503e-195
5.96977e-190
2.02463e-195
5.96977e-190
2.02463e-195
1.98646e-192
6.30546e-198
1.69272e-184
5.96977e-190
6.0192e-187
1.98646e-192
6.0192e-187
1.98646e-192
-1.68417e-184
-5.94155e-190
1.98646e-192
6.30546e-198
-5.94155e-190
-2.01566e-195
-5.94155e-190
-2.01566e-195
-1.09825e-189
-3.72487e-195
-1.68417e-184
-5.94155e-190
-3.11393e-184
-1.09825e-189
6.30546e-198
1.92538e-203
-2.01566e-195
-6.57732e-201
1.92538e-203
5.65728e-209
-6.57732e-201
-2.06484e-206
-6.57732e-201
-2.06484e-206
-1.21518e-200
-3.81403e-206
-2.01566e-195
-6.57732e-201
-3.72487e-195
-1.21518e-200
-3.72487e-195
-1.21518e-200
-4.84608e-195
-1.58067e-200
-1.21518e-200
-3.81403e-206
-1.58067e-200
-4.96033e-206
-1.58067e-200
-4.96033e-206
-8.57385e-201
-2.69072e-206
-4.84608e-195
-1.58067e-200
-2.62845e-195
-8.57385e-201
-3.11393e-184
-1.09825e-189
-4.05294e-184
-1.42913e-189
-1.09825e-189
-3.72487e-195
-1.42913e-189
-4.84608e-195
-1.42913e-189
-4.84608e-195
-7.75092e-190
-2.62845e-195
-4.05294e-184
-1.42913e-189
-2.19798e-184
-7.75092e-190
3.40926e-165
1.32011e-170
-7.29465e-163
-3.02156e-168
1.32011e-170
4.90929e-176
-3.02156e-168
-1.20156e-173
-3.02156e-168
-1.20156e-173
-5.59217e-168
-2.223e-173
-7.29465e-163
-3.02156e-168
-1.35058e-162
-5.59217e-168
4.90929e-176
1.75337e-181
-1.20156e-173
-4.589e-179
1.75337e-181
6.0192e-187
-4.589e-179
-1.68417e-184
-4.589e-179
-1.68417e-184
-8.48733e-179
-3.11393e-184
-1.20156e-173
-4.589e-179
-2.223e-173
-8.48733e-179
-2.223e-173
-8.48733e-179
-2.89478e-173
-1.10493e-178
-8.48733e-179
-3.11393e-184
-1.10493e-178
-4.05294e-184
-1.10493e-178
-4.05294e-184
-5.99189e-179
-2.19798e-184
-2.89478e-173
-1.10493e-178
-1.56968e-173
-5.99189e-179
-1.35058e-162
-5.59217e-168
-1.75975e-162
-7.28423e-168
-5.59217e-168
-2.223e-173
-7.28423e-168
-2.89478e-173
-7.28423e-168
-2.89478e-173
-3.94958e-168
-1.56968e-173
-1.75975e-162
-7.28423e-168
-9.54078e-163
-3.94958e-168
2.68528e-206
8.1099e-212
4.95264e-206
1.49563e-211
8.1099e-212
2.35689e-217
1.49563e-211
4.34624e-217
1.49563e-211
4.34624e-217
1.1519e-211
3.34754e-217
4.95264e-206
1.49563e-211
3.8142e-206
1.1519e-211
2.35689e-217
6.59102e-223
4.34624e-217
1.21533e-222
6.59102e-223
1.77344e-228
1.21533e-222
3.26985e-228
1.21533e-222
3.26985e-228
9.36108e-223
2.5187e-228
4.34624e-217
1.21533e-222
3.34754e-217
9.36108e-223
3.34754e-217
9.36108e-223
1.8191e-217
5.08673e-223
9.36108e-223
2.5187e-228
5.08673e-223
1.36858e-228
5.08673e-223
1.36858e-228
1.14015e-225
2.87371e-231
1.8191e-217
5.08673e-223
4.35325e-220
1.14015e-225
3.8142e-206
1.1519e-211
2.07289e-206
6.2599e-212
1.1519e-211
3.34754e-217
6.2599e-212
1.8191e-217
6.2599e-212
1.8191e-217
1.59965e-214
4.35325e-220
2.07289e-206
6.2599e-212
5.65728e-209
1.59965e-214
1.77344e-228
4.59037e-234
3.26985e-228
8.46312e-234
4.59037e-234
1.14268e-239
8.46312e-234
2.10659e-239
8.46312e-234
2.10659e-239
6.51921e-234
1.62278e-239
3.26985e-228
8.46312e-234
2.5187e-228
6.51921e-234
1.14268e-239
2.73445e-245
2.10659e-239
5.04081e-245
2.73445e-245
6.28717e-251
5.04081e-245
1.15894e-250
5.04081e-245
1.15894e-250
3.88323e-245
8.92825e-251
2.10659e-239
5.04081e-245
1.62278e-239
3.88323e-245
1.62278e-239
3.88323e-245
8.81695e-240
2.10978e-245
3.88323e-245
8.92825e-251
2.10978e-245
4.85058e-251
2.10978e-245
4.85058e-251
3.64635e-248
7.85992e-254
8.81695e-240
2.10978e-245
1.62568e-242
3.64635e-248
2.5187e-228
6.51921e-234
1.36858e-228
3.54219e-234
6.51921e-234
1.62278e-239
3.54219e-234
8.81695e-240
3.54219e-234
8.81695e-240
6.96903e-237
1.62568e-242
1.36858e-228
3.54219e-234
2.87371e-231
6.96903e-237
2.87371e-231
6.96903e-237
-1.36448e-228
-3.53223e-234
6.96903e-237
1.62568e-242
-3.53223e-234
-8.79371e-240
-3.53223e-234
-8.79371e-240
-6.51889e-234
-1.62269e-239
-1.36448e-228
-3.53223e-234
-2.51857e-228
-6.51889e-234
1.62568e-242
3.64635e-248
-8.79371e-240
-2.10456e-245
3.64635e-248
7.85992e-254
-2.10456e-245
-4.83933e-251
-2.10456e-245
-4.83933e-251
-3.88303e-245
-8.92777e-251
-8.79371e-240
-2.10456e-245
-1.62269e-239
-3.88303e-245
-1.62269e-239
-3.88303e-245
-2.10875e-239
-5.04563e-245
-3.88303e-245
-8.92777e-251
-5.04563e-245
-1.15997e-250
-5.04563e-245
-1.15997e-250
-2.73786e-245
-6.29447e-251
-2.10875e-239
-5.04563e-245
-1.14421e-239
-2.73786e-245
-2.51857e-228
-6.51889e-234
-3.2737e-228
-8.47241e-234