<VTKFile type="UnstructuredGrid" version="0.1" byte_order="LittleEndian">
<UnstructuredGrid>
<Piece NumberOfPoints="2048" NumberOfCells="512">
<Points>
<DataArray type="Float64" NumberOfComponents="3" format="ascii">
0 0 0
0.125 0 0
0 0.125 0
0.125 0.125 0
0.125 0 0
0.25 0 0
0.125 0.125 0
0.25 0.125 0
0.125 0.125 0
0.25 0.125 0
0.125 0.25 0
0.25 0.25 0
0 0.125 0
0.125 0.125 0
0 0.25 0
0.125 0.25 0
0.25 0 0
0.375 0 0
0.25 0.125 0
0.375 0.125 0
0.375 0 0
0.5 0 0
0.375 0.125 0
0.5 0.125 0
0.375 0.125 0
0.5 0.125 0
0.375 0.25 0
0.5 0.25 0
0.25 0.125 0
0.375 0.125 0
0.25 0.25 0
0.375 0.25 0
0.25 0.25 0
0.375 0.25 0
0.25 0.375 0
0.375 0.375 0
0.375 0.25 0
0.5 0.25 0
0.375 0.375 0
0.5 0.375 0
0.375 0.375 0
0.5 0.375 0
0.375 0.5 0
0.5 0.5 0
0.25 0.375 0
0.375 0.375 0
0.25 0.5 0
0.375 0.5 0
0 0.25 0
0.125 0.25 0
0 0.375 0
0.125 0.375 0
0.125 0.25 0
0.25 0.25 0
0.125 0.375 0
0.25 0.375 0
0.125 0.375 0
0.25 0.375 0
0.125 0.5 0
0.25 0.5 0
0 0.375 0
0.125 0.375 0
0 0.5 0
0.125 0.5 0
0.5 0 0
0.625 0 0
0.5 0.125 0
0.625 0.125 0
0.625 0 0
0.75 0 0
0.625 0.125 0
0.75 0.125 0
0.625 0.125 0
0.75 0.125 0
0.625 0.25 0
0.75 0.25 0
0.5 0.125 0
0.625 0.125 0
0.5 0.25 0
0.625 0.25 0
0.75 0 0
0.875 0 0
0.75 0.125 0
0.875 0.125 0
0.875 0 0
1 0 0
0.875 0.125 0
1 0.125 0
0.875 0.125 0
1 0.125 0
0.875 0.25 0
1 0.25 0
0.75 0.125 0
0.875 0.125 0
0.75 0.25 0
0.875 0.25 0
0.75 0.25 0
0.875 0.25 0
0.75 0.375 0
0.875 0.375 0
0.875 0.25 0
1 0.25 0
0.875 0.375 0
1 0.375 0
0.875 0.375 0
1 0.375 0
0.875 0.5 0
1 0.5 0
0.75 0.375 0
0.875 0.375 0
0.75 0.5 0
0.875 0.5 0
0.5 0.25 0
0.625 0.25 0
0.5 0.375 0
0.625 0.375 0
0.625 0.25 0
0.75 0.25 0
0.625 0.375 0
0.75 0.375 0
0.625 0.375 0
0.75 0.375 0
0.625 0.5 0
0.75 0.5 0
0.5 0.375 0
0.625 0.375 0
0.5 0.5 0
0.625 0.5 0
0.5 0.5 0
0.625 0.5 0
0.5 0.625 0
0.625 0.625 0
0.625 0.5 0
0.75 0.5 0
0.625 0.625 0
0.75 0.625 0
0.625 0.625 0
0.75 0.625 0
0.625 0.75 0
0.75 0.75 0
0.5 0.625 0
0.625 0.625 0
0.5 0.75 0
0.625 0.75 0
0.75 0.5 0
0.875 0.5 0
0.75 0.625 0
0.875 0.625 0
0.875 0.5 0
1 0.5 0
0.875 0.625 0
1 0.625 0
0.875 0.625 0
1 0.625 0
0.875 0.75 0
1 0.75 0
0.75 0.625 0
0.875 0.625 0
0.75 0.75 0
0.875 0.75 0
0.75 0.75 0
0.875 0.75 0
0.75 0.875 0
0.875 0.875 0
0.875 0.75 0
1 0.75 0
0.875 0.875 0
1 0.875 0
0.875 0.875 0
1 0.875 0
0.875 1 0
1 1 0
0.75 0.875 0
0.875 0.875 0
0.75 1 0
0.875 1 0
0.5 0.75 0
0.625 0.75 0
0.5 0.875 0
0.625 0.875 0
0.625 0.75 0
0.75 0.75 0
0.625 0.875 0
0.75 0.875 0
0.625 0.875 0
0.75 0.875 0
0.625 1 0
0.75 1 0
0.5 0.875 0
0.625 0.875 0
0.5 1 0
0.625 1 0
0 0.5 0
0.125 0.5 0
0 0.625 0
0.125 0.625 0
0.125 0.5 0
0.25 0.5 0
0.125 0.625 0
0.25 0.625 0
0.125 0.625 0
0.25 0.625 0
0.125 0.75 0
0.25 0.75 0
0 0.625 0
0.125 0.625 0
0 0.75 0
0.125 0.75 0
0.25 0.5 0
0.375 0.5 0
0.25 0.625 0
0.375 0.625 0
0.375 0.5 0
0.5 0.5 0
0.375 0.625 0
0.5 0.625 0
0.375 0.625 0
0.5 0.625 0
0.375 0.75 0
0.5 0.75 0
0.25 0.625 0
0.375 0.625 0
0.25 0.75 0
0.375 0.75 0
0.25 0.75 0
0.375 0.75 0
0.25 0.875 0
0.375 0.875 0
0.375 0.75 0
0.5 0.75 0
0.375 0.875 0
0.5 0.875 0
0.375 0.875 0
0.5 0.875 0
0.375 1 0
0.5 1 0
0.25 0.875 0
0.375 0.875 0
0.25 1 0
0.375 1 0
0 0.75 0
0.125 0.75 0
0 0.875 0
0.125 0.875 0
0.125 0.75 0
0.25 0.75 0
0.125 0.875 0
0.25 0.875 0
0.125 0.875 0
0.25 0.875 0
0.125 1 0
0.25 1 0
0 0.875 0
0.125 0.875 0
0 1 0
0.125 1 0
1 0 0
1.125 0 0
1 0.125 0
1.125 0.125 0
1.125 0 0
1.25 0 0
1.125 0.125 0
1.25 0.125 0
1.125 0.125 0
1.25 0.125 0
1.125 0.25 0
1.25 0.25 0
1 0.125 0
1.125 0.125 0
1 0.25 0
1.125 0.25 0
1.25 0 0
1.375 0 0
1.25 0.125 0
1.375 0.125 0
1.375 0 0
1.5 0 0
1.375 0.125 0
1.5 0.125 0
1.375 0.125 0
1.5 0.125 0
1.375 0.25 0
1.5 0.25 0
1.25 0.125 0
1.375 0.125 0
1.25 0.25 0
1.375 0.25 0
1.25 0.25 0
1.375 0.25 0
1.25 0.375 0
1.375 0.375 0
1.375 0.25 0
1.5 0.25 0
1.375 0.375 0
1.5 0.375 0
1.375 0.375 0
1.5 0.375 0
1.375 0.5 0
1.5 0.5 0
1.25 0.375 0
1.375 0.375 0
1.25 0.5 0
1.375 0.5 0
1 0.25 0
1.125 0.25 0
1 0.375 0
1.125 0.375 0
1.125 0.25 0
1.25 0.25 0
1.125 0.375 0
1.25 0.375 0
1.125 0.375 0
1.25 0.375 0
1.125 0.5 0
1.25 0.5 0
1 0.375 0
1.125 0.375 0
1 0.5 0
1.125 0.5 0
1.5 0 0
1.625 0 0
1.5 0.125 0
1.625 0.125 0
1.625 0 0
1.75 0 0
1.625 0.125 0
1.75 0.125 0
1.625 0.125 0
1.75 0.125 0
1.625 0.25 0
1.75 0.25 0
1.5 0.125 0
1.625 0.125 0
1.5 0.25 0
1.625 0.25 0
1.75 0 0
1.875 0 0
1.75 0.125 0
1.875 0.125 0
1.875 0 0
2 0 0
1.875 0.125 0
2 0.125 0
1.875 0.125 0
2 0.125 0
1.875 0.25 0
2 0.25 0
1.75 0.125 0
1.875 0.125 0
1.75 0.25 0
1.875 0.25 0
1.75 0.25 0
1.875 0.25 0
1.75 0.375 0
1.875 0.375 0
1.875 0.25 0
2 0.25 0
1.875 0.375 0
2 0.375 0
1.875 0.375 0
2 0.375 0
1.875 0.5 0
2 0.5 0
1.75 0.375 0
1.875 0.375 0
1.75 0.5 0
1.875 0.5 0
1.5 0.25 0
1.625 0.25 0
1.5 0.375 0
1.625 0.375 0
1.625 0.25 0
1.75 0.25 0
1.625 0.375 0
1.75 0.375 0
1.625 0.375 0
1.75 0.375 0
1.625 0.5 0
1.75 0.5 0
1.5 0.375 0
1.625 0.375 0
1.5 0.5 0
1.625 0.5 0
1.5 0.5 0
1.625 0.5 0
1.5 0.625 0
1.625 0.625 0
1.625 0.5 0
1.75 0.5 0
1.625 0.625 0
1.75 0.625 0
1.625 0.625 0
1.75 0.625 0
1.625 0.75 0
1.75 0.75 0
1.5 0.625 0
1.625 0.625 0
1.5 0.75 0
1.625 0.75 0
1.75 0.5 0
1.875 0.5 0
1.75 0.625 0
1.875 0.625 0
1.875 0.5 0
2 0.5 0
1.875 0.625 0
2 0.625 0
1.875 0.625 0
2 0.625 0
1.875 0.75 0
2 0.75 0
1.75 0.625 0
1.875 0.625 0
1.75 0.75 0
1.875 0.75 0
1.75 0.75 0
1.875 0.75 0
1.75 0.875 0
1.875 0.875 0
1.875 0.75 0
2 0.75 0
1.875 0.875 0
2 0.875 0
1.875 0.875 0
2 0.875 0
1.875 1 0
2 1 0
1.75 0.875 0
1.875 0.875 0
1.75 1 0
1.875 1 0
1.5 0.75 0
1.625 0.75 0
1.5 0.875 0
1.625 0.875 0
1.625 0.75 0
1.75 0.75 0
1.625 0.875 0
1.75 0.875 0
1.625 0.875 0
1.75 0.875 0
1.625 1 0
1.75 1 0
1.5 0.875 0
1.625 0.875 0
1.5 1 0
1.625 1 0
1 0.5 0
1.125 0.5 0
1 0.625 0
1.125 0.625 0
1.125 0.5 0
1.25 0.5 0
1.125 0.625 0
1.25 0.625 0
1.125 0.625 0
1.25 0.625 0
1.125 0.75 0
1.25 0.75 0
1 0.625 0
1.125 0.625 0
1 0.75 0
1.125 0.75 0
1.25 0.5 0
1.375 0.5 0
1.25 0.625 0
1.375 0.625 0
1.375 0.5 0
1.5 0.5 0
1.375 0.625 0
1.5 0.625 0
1.375 0.625 0
1.5 0.625 0
1.375 0.75 0
1.5 0.75 0
1.25 0.625 0
1.375 0.625 0
1.25 0.75 0
1.375 0.75 0
1.25 0.75 0
1.375 0.75 0
1.25 0.875 0
1.375 0.875 0
1.375 0.75 0
1.5 0.75 0
1.375 0.875 0
1.5 0.875 0
1.375 0.875 0
1.5 0.875 0
1.375 1 0
1.5 1 0
1.25 0.875 0
1.375 0.875 0
1.25 1 0
1.375 1 0
1 0.75 0
1.125 0.75 0
1 0.875 0
1.125 0.875 0
1.125 0.75 0
1.25 0.75 0
1.125 0.875 0
1.25 0.875 0
1.125 0.875 0
1.25 0.875 0
1.125 1 0
1.25 1 0
1 0.875 0
1.125 0.875 0
1 1 0
1.125 1 0
2 0 0
2.125 0 0
2 0.125 0
2.125 0.125 0
2.125 0 0
2.25 0 0
2.125 0.125 0
2.25 0.125 0
2.125 0.125 0
2.25 0.125 0
2.125 0.25 0
2.25 0.25 0
2 0.125 0
2.125 0.125 0
2 0.25 0
2.125 0.25 0
2.25 0 0
2.375 0 0
2.25 0.125 0
2.375 0.125 0
2.375 0 0
2.5 0 0
2.375 0.125 0
2.5 0.125 0
2.375 0.125 0
2.5 0.125 0
2.375 0.25 0
2.5 0.25 0
2.25 0.125 0
2.375 0.125 0
2.25 0.25 0
2.375 0.25 0
2.25 0.25 0
2.375 0.25 0
2.25 0.375 0
2.375 0.375 0
2.375 0.25 0
2.5 0.25 0
2.375 0.375 0
2.5 0.375 0
2.375 0.375 0
2.5 0.375 0
2.375 0.5 0
2.5 0.5 0
2.25 0.375 0
2.375 0.375 0
2.25 0.5 0
2.375 0.5 0
2 0.25 0
2.125 0.25 0
2 0.375 0
2.125 0.375 0
2.125 0.25 0
2.25 0.25 0
2.125 0.375 0
2.25 0.375 0
2.125 0.375 0
2.25 0.375 0
2.125 0.5 0
2.25 0.5 0
2 0.375 0
2.125 0.375 0
2 0.5 0
2.125 0.5 0
2.5 0 0
2.625 0 0
2.5 0.125 0
2.625 0.125 0
2.625 0 0
2.75 0 0
2.625 0.125 0
2.75 0.125 0
2.625 0.125 0
2.75 0.125 0
2.625 0.25 0
2.75 0.25 0
2.5 0.125 0
2.625 0.125 0
2.5 0.25 0
2.625 0.25 0
2.75 0 0
2.875 0 0
2.75 0.125 0
2.875 0.125 0
2.875 0 0
3 0 0
2.875 0.125 0
3 0.125 0
2.875 0.125 0
3 0.125 0
2.875 0.25 0
3 0.25 0
2.75 0.125 0
2.875 0.125 0
2.75 0.25 0
2.875 0.25 0
2.75 0.25 0
2.875 0.25 0
2.75 0.375 0
2.875 0.375 0
2.875 0.25 0
3 0.25 0
2.875 0.375 0
3 0.375 0
2.875 0.375 0
3 0.375 0
2.875 0.5 0
3 0.5 0
2.75 0.375 0
2.875 0.375 0
2.75 0.5 0
2.875 0.5 0
2.5 0.25 0
2.625 0.25 0
2.5 0.375 0
2.625 0.375 0
2.625 0.25 0
2.75 0.25 0
2.625 0.375 0
2.75 0.375 0
2.625 0.375 0
2.75 0.375 0
2.625 0.5 0
2.75 0.5 0
2.5 0.375 0
2.625 0.375 0
2.5 0.5 0
2.625 0.5 0
2.5 0.5 0
2.625 0.5 0
2.5 0.625 0
2.625 0.625 0
2.625 0.5 0
2.75 0.5 0
2.625 0.625 0
2.75 0.625 0
2.625 0.625 0
2.75 0.625 0
2.625 0.75 0
2.75 0.75 0
2.5 0.625 0
2.625 0.625 0
2.5 0.75 0
2.625 0.75 0
2.75 0.5 0
2.875 0.5 0
2.75 0.625 0
2.875 0.625 0
2.875 0.5 0
3 0.5 0
2.875 0.625 0
3 0.625 0
2.875 0.625 0
3 0.625 0
2.875 0.75 0
3 0.75 0
2.75 0.625 0
2.875 0.625 0
2.75 0.75 0
2.875 0.75 0
2.75 0.75 0
2.875 0.75 0
2.75 0.875 0
2.875 0.875 0
2.875 0.75 0
3 0.75 0
2.875 0.875 0
3 0.875 0
2.875 0.875 0
3 0.875 0
2.875 1 0
3 1 0
2.75 0.875 0
2.875 0.875 0
2.75 1 0
2.875 1 0
2.5 0.75 0
2.625 0.75 0
2.5 0.875 0
2.625 0.875 0
2.625 0.75 0
2.75 0.75 0
2.625 0.875 0
2.75 0.875 0
2.625 0.875 0
2.75 0.875 0
2.625 1 0
2.75 1 0
2.5 0.875 0
2.625 0.875 0
2.5 1 0
2.625 1 0
2 0.5 0
2.125 0.5 0
2 0.625 0
2.125 0.625 0
2.125 0.5 0
2.25 0.5 0
2.125 0.625 0
2.25 0.625 0
2.125 0.625 0
2.25 0.625 0
2.125 0.75 0
2.25 0.75 0
2 0.625 0
2.125 0.625 0
2 0.75 0
2.125 0.75 0
2.25 0.5 0
2.375 0.5 0
2.25 0.625 0
2.375 0.625 0
2.375 0.5 0
2.5 0.5 0
2.375 0.625 0
2.5 0.625 0
2.375 0.625 0
2.5 0.625 0
2.375 0.75 0
2.5 0.75 0
2.25 0.625 0
2.375 0.625 0
2.25 0.75 0
2.375 0.75 0
2.25 0.75 0
2.375 0.75 0
2.25 0.875 0
2.375 0.875 0
2.375 0.75 0
2.5 0.75 0
2.375 0.875 0
2.5 0.875 0
2.375 0.875 0
2.5 0.875 0
2.375 1 0
2.5 1 0
2.25 0.875 0
2.375 0.875 0
2.25 1 0
2.375 1 0
2 0.75 0
2.125 0.75 0
2 0.875 0
2.125 0.875 0
2.125 0.75 0
2.25 0.75 0
2.125 0.875 0
2.25 0.875 0
2.125 0.875 0
2.25 0.875 0
2.125 1 0
2.25 1 0
2 0.875 0
2.125 0.875 0
2 1 0
2.125 1 0
3 0 0
3.125 0 0
3 0.125 0
3.125 0.125 0
3.125 0 0
3.25 0 0
3.125 0.125 0
3.25 0.125 0
3.125 0.125 0
3.25 0.125 0
3.125 0.25 0
3.25 0.25 0
3 0.125 0
3.125 0.125 0
3 0.25 0
3.125 0.25 0
3.25 0 0
3.375 0 0
3.25 0.125 0
3.375 0.125 0
3.375 0 0
3.5 0 0
3.375 0.125 0
3.5 0.125 0
3.375 0.125 0
3.5 0.125 0
3.375 0.25 0
3.5 0.25 0
3.25 0.125 0
3.375 0.125 0
3.25 0.25 0
3.375 0.25 0
3.25 0.25 0
3.375 0.25 0
3.25 0.375 0
3.375 0.375 0
3.375 0.25 0
3.5 0.25 0
3.375 0.375 0
3.5 0.375 0
3.375 0.375 0
3.5 0.375 0
3.375 0.5 0
3.5 0.5 0
3.25 0.375 0
3.375 0.375 0
3.25 0.5 0
[...]
<CellData Scalars="attribute">
<DataArray type="Int32" Name="attribute" format="ascii">
1
1
1
1
1
1
1
1
1
1
1
1
1
1
1
1
1
1
1
1
1
1
1
1
1
1
1
1
1
1
1
1
1
1
1
1
1
1
1
1
1
1
1
1
1
1
1
1
1
1
1
1
1
1
1
1
1
1
1
1
1
1
1
1
1
1
1
1
1
1
1
1
1
1
1
1
1
1
1
1
1
1
1
1
1
1
1
1
1
1
1
1
1
1
1
1
1
1
1
1
1
1
1
1
1
1
1
1
1
1
1
1
1
1
1
1
1
1
1
1
1
1
1
1
1
1
1
1
1
1
1
1
1
1
1
1
1
1
1
1
1
1
1
1
1
1
1
1
1
1
1
1
1
1
1
1
1
1
1
1
1
1
1
1
1
1
1
1
1
1
1
1
1
1
1
1
1
1
1
1
1
1
1
1
1
1
1
1
1
1
1
1
1
1
1
1
1
1
1
1
1
1
1
1
1
1
1
1
1
1
1
1
1
1
1
1
1
1
1
1
1
1
1
1
1
1
1
1
1
1
1
1
1
1
1
1
1
1
1
1
1
1
1
1
1
1
1
1
1
1
1
1
1
1
1
1
2
2
2
2
2
2
2
2
2
2
2
2
2
2
2
2
2
2
2
2
2
2
2
2
2
2
2
2
2
2
2
2
2
2
2
2
2
2
2
2
2
2
2
2
2
2
2
2
2
2
2
2
2
2
2
2
2
2
2
2
2
2
2
2
2
2
2
2
2
2
2
2
2
2
2
2
2
2
2
2
2
2
2
2
2
2
2
2
2
2
2
2
2
2
2
2
2
2
2
2
2
2
2
2
2
2
2
2
2
2
2
2
2
2
2
2
2
2
2
2
2
2
2
2
2
2
2
2
2
2
2
2
2
2
2
2
2
2
2
2
2
2
2
2
2
2
2
2
2
2
2
2
2
2
2
2
2
2
2
2
2
2
2
2
2
2
2
2
2
2
2
2
2
2
2
2
2
2
2
2
2
2
2
2
2
2
2
2
2
2
2
2
2
2
2
2
2
2
2
2
2
2
2
2
2
2
2
2
2
2
2
2
2
2
2
2
2
2
2
2
2
2
2
2
2
2
2
2
2
2
2
2
2
2
2
2
2
2
2
2
2
2
2
2
2
2
2
2
2
2
2
2
2
2
2
2
</DataArray>
</CellData>
<PointData >
<DataArray type="Float64" Name="Pressure" NumberOfComponents="1" format="ascii" >
-0.000827959
-1.66969e-06
-0.0013549
-2.764e-06
-1.66969e-06
1.32196e-10
-2.764e-06
2.28938e-10
-2.764e-06
2.28938e-10
-1.85561e-06
1.55469e-10
-0.0013549
-2.764e-06
-0.00090328
-1.85561e-06
1.32196e-10
-6.58752e-15
2.28938e-10
-1.17627e-14
-6.58752e-15
3.32245e-19
-1.17627e-14
6.15097e-19
-1.17627e-14
6.15097e-19
-8.19065e-15
4.39923e-19
2.28938e-10
-1.17627e-14
1.55469e-10
-8.19065e-15
1.55469e-10
-8.19065e-15
7.96739e-11
-4.18538e-15
-8.19065e-15
4.39923e-19
-4.18538e-15
2.25035e-19
-4.18538e-15
2.25035e-19
-1.38617e-16
7.14108e-21
7.96739e-11
-4.18538e-15
2.81111e-12
-1.38617e-16
-0.00090328
-1.85561e-06
-0.000451658
-9.42271e-07
-1.85561e-06
1.55469e-10
-9.42271e-07
7.96739e-11
-9.42271e-07
7.96739e-11
-2.08719e-08
2.81111e-12
-0.000451658
-9.42271e-07
-2.56791e-08
-2.08719e-08
3.32245e-19
-8.67792e-24
6.15097e-19
-1.6652e-23
-8.67792e-24
3.93973e-28
-1.6652e-23
7.60103e-28
-1.6652e-23
7.60103e-28
-1.23377e-23
5.71195e-28
6.15097e-19
-1.6652e-23
4.39923e-19
-1.23377e-23
3.93973e-28
-4.34901e-33
7.60103e-28
-9.25661e-33
-4.34901e-33
3.04475e-37
-9.25661e-33
5.9617e-37
-9.25661e-33
5.9617e-37
-7.48749e-33
4.61678e-37
7.60103e-28
-9.25661e-33
5.71195e-28
-7.48749e-33
5.71195e-28
-7.48749e-33
2.96963e-28
-3.94827e-33
-7.48749e-33
4.61678e-37
-3.94827e-33
2.45183e-37
-3.94827e-33
2.45183e-37
-1.13888e-34
6.24295e-39
2.96963e-28
-3.94827e-33
8.51903e-30
-1.13888e-34
4.39923e-19
-1.23377e-23
2.25035e-19
-6.35003e-24
-1.23377e-23
5.71195e-28
-6.35003e-24
2.96963e-28
-6.35003e-24
2.96963e-28
-1.94016e-25
8.51903e-30
2.25035e-19
-6.35003e-24
7.14108e-21
-1.94016e-25
7.14108e-21
-1.94016e-25
-2.13793e-19
6.04764e-24
-1.94016e-25
8.51903e-30
6.04764e-24
-2.83966e-28
6.04764e-24
-2.83966e-28
1.22935e-23
-5.69685e-28
-2.13793e-19
6.04764e-24
-4.37854e-19
1.22935e-23
8.51903e-30
-1.13888e-34
-2.83966e-28
3.77572e-33
-1.13888e-34
6.24295e-39
3.77572e-33
-2.35927e-37
3.77572e-33
-2.35927e-37
7.46726e-33
-4.60931e-37
-2.83966e-28
3.77572e-33
-5.69685e-28
7.46726e-33
-5.69685e-28
7.46726e-33
-7.72234e-28
9.39767e-33
7.46726e-33
-4.60931e-37
9.39767e-33
-6.04512e-37
9.39767e-33
-6.04512e-37
4.44399e-33
-3.10369e-37
-7.72234e-28
9.39767e-33
-4.02842e-28
4.44399e-33
-4.37854e-19
1.22935e-23
-6.26065e-19
1.69355e-23
1.22935e-23
-5.69685e-28
1.69355e-23
-7.72234e-28
1.69355e-23
-7.72234e-28
8.88863e-24
-4.02842e-28
-6.26065e-19
1.69355e-23
-3.40985e-19
8.88863e-24
-2.56791e-08
-2.08719e-08
0.000451617
9.08587e-07
-2.08719e-08
2.81111e-12
9.08587e-07
-7.5147e-11
9.08587e-07
-7.5147e-11
1.8461e-06
-1.54226e-10
0.000451617
9.08587e-07
0.000903269
1.8461e-06
2.81111e-12
-1.38617e-16
-7.5147e-11
3.9644e-15
-1.38617e-16
7.14108e-21
3.9644e-15
-2.13793e-19
3.9644e-15
-2.13793e-19
8.13926e-15
-4.37854e-19
-7.5147e-11
3.9644e-15
-1.54226e-10
8.13926e-15
-1.54226e-10
8.13926e-15
-2.33178e-10
1.19817e-14
8.13926e-15
-4.37854e-19
1.19817e-14
-6.26065e-19
1.19817e-14
-6.26065e-19
6.77394e-15
-3.40985e-19
-2.33178e-10
1.19817e-14
-1.36538e-10
6.77394e-15
0.000903269
1.8461e-06
0.00135493
2.79511e-06
1.8461e-06
-1.54226e-10
2.79511e-06
-2.33178e-10
2.79511e-06
-2.33178e-10
1.70265e-06
-1.36538e-10
0.00135493
2.79511e-06
0.000828
1.70265e-06
3.04475e-37
5.87186e-43
5.9617e-37
2.34489e-43
5.87186e-43
1.85365e-46
2.34489e-43
3.59692e-46
2.34489e-43
3.59692e-46
-3.51669e-43
2.80709e-46
5.9617e-37
2.34489e-43
4.61678e-37
-3.51669e-43
1.85365e-46
2.16382e-51
3.59692e-46
3.66331e-51
2.16382e-51
9.50385e-56
3.66331e-51
1.81097e-55
3.66331e-51
1.81097e-55
2.5294e-51
1.40561e-55
3.59692e-46
3.66331e-51
2.80709e-46
2.5294e-51
2.80709e-46
2.5294e-51
1.51288e-46
1.31856e-51
2.5294e-51
1.40561e-55
1.31856e-51
7.62132e-56
1.31856e-51
7.62132e-56
2.21833e-53
1.44955e-57
1.51288e-46
1.31856e-51
3.35154e-48
2.21833e-53
4.61678e-37
-3.51669e-43
2.45183e-37
-2.41842e-43
-3.51669e-43
2.80709e-46
-2.41842e-43
1.51288e-46
-2.41842e-43
1.51288e-46
-1.40109e-44
3.35154e-48
2.45183e-37
-2.41842e-43
6.24295e-39
-1.40109e-44
9.50385e-56
1.55811e-60
1.81097e-55
2.79329e-60
1.55811e-60
4.03424e-65
2.79329e-60
7.57692e-65
2.79329e-60
7.57692e-65
2.05241e-60
5.84059e-65
1.81097e-55
2.79329e-60
1.40561e-55
2.05241e-60
4.03424e-65
6.96499e-70
7.57692e-65
1.27179e-69
6.96499e-70
1.38143e-74
1.27179e-69
2.57324e-74
1.27179e-69
2.57324e-74
9.55399e-70
1.97601e-74
7.57692e-65
1.27179e-69
5.84059e-65
9.55399e-70
5.84059e-65
9.55399e-70
3.17115e-65
5.13661e-70
9.55399e-70
1.97601e-74
5.13661e-70
1.07311e-74
5.13661e-70
1.07311e-74
7.38795e-72
1.50311e-76
3.17115e-65
5.13661e-70
5.16549e-67
7.38795e-72
1.40561e-55
2.05241e-60
7.62132e-56
1.09287e-60
2.05241e-60
5.84059e-65
1.09287e-60
3.17115e-65
1.09287e-60
3.17115e-65
1.75632e-62
5.16549e-67
7.62132e-56
1.09287e-60
1.44955e-57
1.75632e-62
1.44955e-57
1.75632e-62
-7.41268e-56
-1.06801e-60
1.75632e-62
5.16549e-67
-1.06801e-60
-3.09732e-65
-1.06801e-60
-3.09732e-65
-2.05308e-60
-5.83856e-65
-7.41268e-56
-1.06801e-60
-1.40473e-55
-2.05308e-60
5.16549e-67
7.38795e-72
-3.09732e-65
-5.03212e-70
7.38795e-72
1.50311e-76
-5.03212e-70
-1.05172e-74
-5.03212e-70
-1.05172e-74
-9.55547e-70
-1.97566e-74
-3.09732e-65
-5.03212e-70
-5.83856e-65
-9.55547e-70
-5.83856e-65
-9.55547e-70
-7.64663e-65
-1.2828e-69
-9.55547e-70
-1.97566e-74
-1.2828e-69
-2.59391e-74
-1.2828e-69
-2.59391e-74
-7.04347e-70
-1.39608e-74
-7.64663e-65
-1.2828e-69
-4.08363e-65
-7.04347e-70
-1.40473e-55
-2.05308e-60
-1.83009e-55
-2.821e-60
-2.05308e-60
-5.83856e-65
-2.821e-60
-7.64663e-65
-2.821e-60
-7.64663e-65
-1.57809e-60
-4.08363e-65
-1.83009e-55
-2.821e-60
-9.63884e-56
-1.57809e-60
6.24295e-39
-1.40109e-44
-2.35927e-37
2.19899e-43
-1.40109e-44
3.35154e-48
2.19899e-43
-1.46409e-46
2.19899e-43
-1.46409e-46
3.44587e-43
-2.80418e-46
-2.35927e-37
2.19899e-43
-4.60931e-37
3.44587e-43
3.35154e-48
2.21833e-53
-1.46409e-46
-1.28731e-51
2.21833e-53
1.44955e-57
-1.28731e-51
-7.41268e-56
-1.28731e-51
-7.41268e-56
-2.53172e-51
-1.40473e-55
-1.46409e-46
-1.28731e-51
-2.80418e-46
-2.53172e-51
-2.80418e-46
-2.53172e-51
-3.64066e-46
-3.70465e-51
-2.53172e-51
-1.40473e-55
-3.70465e-51
-1.83009e-55
-3.70465e-51
-1.83009e-55
-2.19485e-51
-9.63884e-56
-3.64066e-46
-3.70465e-51
-1.88438e-46
-2.19485e-51
-4.60931e-37
3.44587e-43
-6.04512e-37
-2.35961e-43
3.44587e-43
-2.80418e-46
-2.35961e-43
-3.64066e-46
-2.35961e-43
-3.64066e-46
-5.93092e-43
-1.88438e-46
-6.04512e-37
-2.35961e-43
-3.10369e-37
-5.93092e-43
1.38143e-74
2.2661e-79
2.57324e-74
4.16828e-79
2.2661e-79
3.79099e-84
4.16828e-79
7.03286e-84
4.16828e-79
7.03286e-84
3.16448e-79
5.39418e-84
2.57324e-74
4.16828e-79
1.97601e-74
3.16448e-79
3.79099e-84
5.70925e-89
7.03286e-84
1.05331e-88
5.70925e-89
8.39864e-94
1.05331e-88
1.55501e-93
1.05331e-88
1.55501e-93
8.04101e-89
1.19286e-93
7.03286e-84
1.05331e-88
5.39418e-84
8.04101e-89
5.39418e-84
8.04101e-89
2.93006e-84
4.3584e-89
8.04101e-89
1.19286e-93
4.3584e-89
6.48155e-94
4.3584e-89
6.48155e-94
4.84673e-91
6.80963e-96
2.93006e-84
4.3584e-89
3.54734e-86
4.84673e-91
1.97601e-74
3.16448e-79
1.07311e-74
1.71027e-79
3.16448e-79
5.39418e-84
1.71027e-79
2.93006e-84
1.71027e-79
2.93006e-84
2.16899e-81
3.54734e-86
1.07311e-74
1.71027e-79
1.50311e-76
2.16899e-81
8.39864e-94
1.15177e-98
1.55501e-93
2.12733e-98
1.15177e-98
1.52099e-103
2.12733e-98
2.81327e-103
2.12733e-98
2.81327e-103
1.62906e-98
2.15943e-103
1.55501e-93
2.12733e-98
1.19286e-93
1.62906e-98
1.52099e-103
1.90173e-108
2.81327e-103
3.51361e-108
1.90173e-108
2.28162e-113
3.51361e-108
4.21759e-113
3.51361e-108
4.21759e-113
2.69564e-108
3.23966e-113
2.81327e-103
3.51361e-108
2.15943e-103
2.69564e-108
2.15943e-103
2.69564e-108
1.1737e-103
1.46464e-108
2.69564e-108
3.23966e-113
1.46464e-108
1.7612e-113
1.46464e-108
1.7612e-113
1.24534e-110
1.40349e-115
1.1737e-103
1.46464e-108
1.07299e-105
1.24534e-110
1.19286e-93
1.62906e-98
6.48155e-94
8.84383e-99
1.62906e-98
2.15943e-103
8.84383e-99
1.1737e-103
8.84383e-99
1.1737e-103
8.60356e-101
1.07299e-105
6.48155e-94
8.84383e-99
6.80963e-96
8.60356e-101
6.80963e-96
8.60356e-101
-6.38507e-94
-8.72218e-99
8.60356e-101
1.07299e-105
-8.72218e-99
-1.15851e-103
-8.72218e-99
-1.15851e-103
-1.62908e-98
-2.15937e-103
-6.38507e-94
-8.72218e-99
-1.19281e-93
-1.62908e-98
1.07299e-105
1.24534e-110
-1.15851e-103
-1.44703e-108
1.24534e-110
1.40349e-115
-1.44703e-108
-1.74134e-113
-1.44703e-108
-1.74134e-113
-2.69564e-108
-3.23959e-113
-1.15851e-103
-1.44703e-108
-2.15937e-103
-2.69564e-108
-2.15937e-103
-2.69564e-108
-2.8283e-103
-3.53117e-108
-2.69564e-108
-3.23959e-113
-3.53117e-108
-4.23725e-113
-3.53117e-108
-4.23725e-113
-1.91416e-108
-2.29554e-113
-2.8283e-103
-3.53117e-108
-1.53164e-103
-1.91416e-108
-1.19281e-93
-1.62908e-98
-1.56453e-93
-2.13952e-98
-1.62908e-98
-2.15937e-103
-2.13952e-98
-2.8283e-103
-2.13952e-98
-2.8283e-103
-1.1604e-98
-1.53164e-103
-1.56453e-93
-2.13952e-98
-8.46612e-94
-1.1604e-98
1.50311e-76
2.16899e-81
-1.05172e-74
-1.67961e-79
2.16899e-81
3.54734e-86
-1.67961e-79
-2.87973e-84
-1.67961e-79
-2.87973e-84
-3.16473e-79
-5.39371e-84
-1.05172e-74
-1.67961e-79
-1.97566e-74
-3.16473e-79
3.54734e-86
4.84673e-91
-2.87973e-84
-4.28988e-89
4.84673e-91
6.80963e-96
-4.28988e-89
-6.38507e-94
-4.28988e-89
-6.38507e-94
-8.04131e-89
-1.19281e-93
-2.87973e-84
-4.28988e-89
-5.39371e-84
-8.04131e-89
-5.39371e-84
-8.04131e-89
-7.08218e-84
-1.06024e-88
-8.04131e-89
-1.19281e-93
-1.06024e-88
-1.56453e-93
-1.06024e-88
-1.56453e-93
-5.75832e-89
-8.46612e-94
-7.08218e-84
-1.06024e-88
-3.82596e-84
-5.75832e-89
-1.97566e-74
-3.16473e-79
-2.59391e-74
-4.19974e-79
-3.16473e-79
-5.39371e-84
-4.19974e-79
-7.08218e-84
-4.19974e-79
-7.08218e-84
-2.28842e-79
-3.82596e-84
-2.59391e-74
-4.19974e-79
-1.39608e-74
-2.28842e-79
2.28162e-113
2.61193e-118
4.21759e-113
4.82553e-118
2.61193e-118
2.87001e-123
4.82553e-118
5.30296e-123
4.82553e-118
5.30296e-123
3.70651e-118
4.07592e-123
4.21759e-113
4.82553e-118
3.23966e-113
3.70651e-118
2.87001e-123
3.02267e-128
5.30296e-123
5.58329e-128
3.02267e-128
3.06038e-133
5.58329e-128
5.65273e-133
5.58329e-128
5.65273e-133
4.29191e-128
4.34701e-133
5.30296e-123
5.58329e-128
4.07592e-123
4.29191e-128
4.07592e-123
4.29191e-128
2.21609e-123
2.33339e-128
4.29191e-128
4.34701e-133
2.33339e-128
2.36357e-133
2.33339e-128
2.36357e-133
1.51507e-130
1.43573e-135
2.21609e-123
2.33339e-128
1.5412e-125
1.51507e-130
3.23966e-113
3.70651e-118
1.7612e-113
2.01474e-118
3.70651e-118
4.07592e-123
2.01474e-118
2.21609e-123
2.01474e-118
2.21609e-123
1.49691e-120
1.5412e-125
1.7612e-113
2.01474e-118
1.40349e-115
1.49691e-120
3.06038e-133
2.97906e-138
5.65273e-133
5.50136e-138
2.97906e-138
2.79294e-143
5.50136e-138
5.15715e-143
5.50136e-138
5.15715e-143
4.23126e-138
3.96753e-143
5.65273e-133
5.50136e-138
4.34701e-133
4.23126e-138
2.79294e-143
2.52337e-148
5.15715e-143
4.65863e-148
2.52337e-148
2.19968e-153
4.65863e-148
4.06057e-153
4.65863e-148
4.06057e-153
3.58452e-148
3.1249e-153
5.15715e-143
4.65863e-148
3.96753e-143
3.58452e-148
3.96753e-143
3.58452e-148
2.15718e-143
1.94885e-148
3.58452e-148
3.1249e-153
1.94885e-148
1.69893e-153
1.94885e-148
1.69893e-153
9.67272e-151
7.8877e-156
2.15718e-143
1.94885e-148
1.14527e-145
9.67272e-151
4.34701e-133
4.23126e-138
2.36357e-133
2.30054e-138
4.23126e-138
3.96753e-143
2.30054e-138
2.15718e-143
2.30054e-138
2.15718e-143
1.30575e-140
1.14527e-145
2.36357e-133
2.30054e-138
1.43573e-135
1.30575e-140
1.43573e-135
1.30575e-140
-2.34324e-133
-2.28205e-138
1.30575e-140
1.14527e-145
-2.28205e-138
-2.14096e-143
-2.28205e-138
-2.14096e-143
-4.23116e-138
-3.96741e-143
-2.34324e-133
-2.28205e-138
-4.3469e-133
-4.23116e-138
1.14527e-145
9.67272e-151
-2.14096e-143
-1.93515e-148
9.67272e-151
7.8877e-156
-1.93515e-148
-1.68775e-153
-1.93515e-148
-1.68775e-153
-3.58441e-148
-3.1248e-153
-2.14096e-143
-1.93515e-148
-3.96741e-143
-3.58441e-148
-3.96741e-143
-3.58441e-148
-5.17309e-143
-4.67207e-148
-3.58441e-148
-3.1248e-153
-4.67207e-148
-4.07151e-153
-4.67207e-148
-4.07151e-153
-2.53289e-148
-2.20743e-153
-5.17309e-143
-4.67207e-148
-2.80422e-143
-2.53289e-148
-4.3469e-133
-4.23116e-138
-5.67277e-133
-5.51958e-138
-4.23116e-138
-3.96741e-143
-5.51958e-138
-5.17309e-143
-5.51958e-138
-5.17309e-143
-2.99196e-138
-2.80422e-143
-5.67277e-133
-5.51958e-138
-3.07457e-133
-2.99196e-138
1.40349e-115
1.49691e-120
-1.74134e-113
-1.99356e-118
1.49691e-120
1.5412e-125
-1.99356e-118
-2.19428e-123
-1.99356e-118
-2.19428e-123
-3.70646e-118
-4.07583e-123
-1.74134e-113
-1.99356e-118
-3.23959e-113
-3.70646e-118
1.5412e-125
1.51507e-130
-2.19428e-123
-2.31194e-128
1.51507e-130
1.43573e-135
-2.31194e-128
-2.34324e-133
-2.31194e-128
-2.34324e-133
-4.29183e-128
-4.3469e-133
-2.19428e-123
-2.31194e-128
-4.07583e-123
-4.29183e-128
-4.07583e-123
-4.29183e-128
-5.32451e-123
-5.60449e-128
-4.29183e-128
-4.3469e-133
-5.60449e-128
-5.67277e-133
-5.60449e-128
-5.67277e-133
-3.03768e-128
-3.07457e-133
-5.32451e-123
-5.60449e-128
-2.88527e-123
-3.03768e-128
-3.23959e-113
-3.70646e-118
-4.23725e-113
-4.84655e-118
-3.70646e-118
-4.07583e-123
-4.84655e-118
-5.32451e-123
-4.84655e-118
-5.32451e-123
-2.62681e-118
-2.88527e-123
-4.23725e-113
-4.84655e-118
-2.29554e-113
-2.62681e-118
2.19968e-153
1.85145e-158
4.06057e-153
3.41727e-158
1.85145e-158
1.50606e-163
3.41727e-158
2.77946e-163
3.41727e-158
2.77946e-163
2.63016e-158
2.13953e-163
4.06057e-153
3.41727e-158
3.1249e-153
2.63016e-158
1.50606e-163
1.18485e-168
2.77946e-163
2.18639e-168
1.18485e-168
9.02209e-174
2.18639e-168
1.66466e-173
2.18639e-168
1.66466e-173
1.68318e-168
1.28165e-173
2.77946e-163
2.18639e-168
2.13953e-163
1.68318e-168
2.13953e-163
1.68318e-168
1.16311e-163
9.14976e-169
1.68318e-168
1.28165e-173
9.14976e-169
6.96672e-174
9.14976e-169
6.96672e-174
3.47698e-171
2.47725e-176
1.16311e-163
9.14976e-169
4.72465e-166
3.47698e-171
3.1249e-153
2.63016e-158
1.69893e-153
1.42989e-158
2.63016e-158
2.13953e-163
1.42989e-158
1.16311e-163
1.42989e-158
1.16311e-163
6.2085e-161
4.72465e-166
1.69893e-153
1.42989e-158
7.8877e-156
6.2085e-161
9.02209e-174
6.65372e-179
1.66466e-173
1.22754e-178
6.65372e-179
4.75579e-184
1.22754e-178
8.77305e-184
1.22754e-178
8.77305e-184
9.45181e-179
6.7556e-184
1.66466e-173
1.22754e-178
1.28165e-173
9.45181e-179
4.75579e-184
3.29645e-189
8.77305e-184
6.0804e-189
3.29645e-189
2.21711e-194
6.0804e-189
4.08916e-194
6.0804e-189
4.08916e-194
4.68245e-189
3.14921e-194
8.77305e-184
6.0804e-189
6.7556e-184
4.68245e-189
6.7556e-184
4.68245e-189
3.6718e-184
2.54488e-189
4.68245e-189
3.14921e-194
2.54488e-189
1.71149e-194
2.54488e-189
1.71149e-194
7.41855e-192
4.67082e-197
3.6718e-184
2.54488e-189
1.1435e-186
7.41855e-192
1.28165e-173
9.45181e-179
6.96672e-174
5.1375e-179
9.45181e-179
6.7556e-184
5.1375e-179
3.6718e-184
5.1375e-179
3.6718e-184
1.70947e-181
1.1435e-186
6.96672e-174
5.1375e-179
2.47725e-176
1.70947e-181
2.47725e-176
1.70947e-181
-6.93155e-174
-5.11322e-179
1.70947e-181
1.1435e-186
-5.11322e-179
-3.65555e-184
-5.11322e-179
-3.65555e-184
-9.45142e-179
-6.75531e-184
-6.93155e-174
-5.11322e-179
-1.2816e-173
-9.45142e-179
1.1435e-186
7.41855e-192
-3.65555e-184
-2.53433e-189
7.41855e-192
4.67082e-197
-2.53433e-189
-1.70484e-194
-2.53433e-189
-1.70484e-194
-4.68225e-189
-3.14907e-194
-3.65555e-184
-2.53433e-189
-6.75531e-184
-4.68225e-189
-6.75531e-184
-4.68225e-189
-8.78869e-184
-6.09052e-189
-4.68225e-189
-3.14907e-194
-6.09052e-189
-4.09551e-194
-6.09052e-189
-4.09551e-194
-3.30361e-189
-2.2216e-194
-8.78869e-184
-6.09052e-189
-4.76687e-184
-3.30361e-189
-1.2816e-173
-9.45142e-179
-1.66806e-173
-1.22988e-178
-9.45142e-179
-6.75531e-184
-1.22988e-178
-8.78869e-184
-1.22988e-178
-8.78869e-184
-6.67032e-179
-4.76687e-184
-1.66806e-173
-1.22988e-178
-9.04621e-174
-6.67032e-179
7.8877e-156
6.2085e-161
-1.68775e-153
-1.42108e-158
6.2085e-161
4.72465e-166
-1.42108e-158
-1.15641e-163
-1.42108e-158
-1.15641e-163
-2.63007e-158
-2.13946e-163
-1.68775e-153
-1.42108e-158
-3.1248e-153
-2.63007e-158
4.72465e-166
3.47698e-171
-1.15641e-163
-9.10042e-169
3.47698e-171
2.47725e-176
-9.10042e-169
-6.93155e-174
-9.10042e-169
-6.93155e-174
-1.68312e-168
-1.2816e-173
-1.15641e-163
-9.10042e-169
-2.13946e-163
-1.68312e-168
-2.13946e-163
-1.68312e-168
-2.78599e-163
-2.19118e-168
-1.68312e-168
-1.2816e-173
-2.19118e-168
-1.66806e-173
-2.19118e-168
-1.66806e-173
-1.18824e-168
-9.04621e-174
-2.78599e-163
-2.19118e-168
-1.51069e-163
-1.18824e-168
-3.1248e-153
-2.63007e-158
-4.07151e-153
-3.42587e-158
-2.63007e-158
-2.13946e-163
-3.42587e-158
-2.78599e-163
-3.42587e-158
-2.78599e-163
-1.85754e-158
-1.51069e-163
-4.07151e-153
-3.42587e-158
-2.20743e-153
-1.85754e-158
2.21711e-194
1.44771e-199
4.08916e-194
2.66988e-199
1.44771e-199
9.18238e-205
2.66988e-199
1.69329e-204
2.66988e-199
1.69329e-204
2.05628e-199
1.3042e-204
4.08916e-194
2.66988e-199
3.14921e-194
2.05628e-199
9.18238e-205
5.66006e-210
1.69329e-204
1.04367e-209
5.66006e-210
3.39218e-215
1.04367e-209
6.25448e-215
1.04367e-209
6.25448e-215
8.03888e-210
4.81771e-215
1.69329e-204
1.04367e-209
1.3042e-204
8.03888e-210
1.3042e-204
8.03888e-210
7.08721e-205
4.36825e-210
8.03888e-210
4.81771e-215
4.36825e-210
2.61779e-215
4.36825e-210
2.61779e-215
9.79085e-213
5.49662e-218
7.08721e-205
4.36825e-210
1.69597e-207
9.79085e-213
3.14921e-194
2.05628e-199
1.71149e-194
1.11747e-199
2.05628e-199
1.3042e-204
1.11747e-199
7.08721e-205
1.11747e-199
7.08721e-205
2.85548e-202
1.69597e-207
1.71149e-194
1.11747e-199
4.67082e-197
2.85548e-202
3.39218e-215
1.97752e-220
6.25448e-215
3.64589e-220
1.97752e-220
1.12183e-225
3.64589e-220
2.06815e-225
3.64589e-220
2.06815e-225
2.80847e-220
1.59317e-225
6.25448e-215
3.64589e-220
4.81771e-215
2.80847e-220
1.12183e-225
6.19534e-231
2.06815e-225
1.14208e-230
6.19534e-231
3.33197e-236
1.14208e-230
6.14197e-236
1.14208e-230
6.14197e-236
8.7981e-231
4.73166e-236
2.06815e-225
1.14208e-230
1.59317e-225
8.7981e-231
1.59317e-225
8.7981e-231
8.65607e-226
4.78005e-231
8.7981e-231
4.73166e-236
4.78005e-231
2.57064e-236
4.78005e-231
2.57064e-236
8.26117e-234
4.16536e-239
8.65607e-226
4.78005e-231
1.59597e-228
8.26117e-234
4.81771e-215
2.80847e-220
2.61779e-215
1.52597e-220
2.80847e-220
1.59317e-225
1.52597e-220
8.65607e-226
1.52597e-220
8.65607e-226
3.00216e-223
1.59597e-228
2.61779e-215
1.52597e-220
5.49662e-218
3.00216e-223
5.49662e-218
3.00216e-223
-2.60994e-215
-1.52168e-220
3.00216e-223
1.59597e-228
-1.52168e-220
-8.63326e-226
-1.52168e-220
-8.63326e-226
-2.80832e-220
-1.59309e-225
-2.60994e-215
-1.52168e-220
-4.81747e-215
-2.80832e-220
1.59597e-228
8.26117e-234
-8.63326e-226
-4.76823e-231
8.26117e-234
4.16536e-239
-4.76823e-231
-2.56467e-236
-4.76823e-231
-2.56467e-236
-8.79764e-231
-4.7314e-236
-8.63326e-226
-4.76823e-231
-1.59309e-225
-8.79764e-231
-1.59309e-225
-8.79764e-231
-2.07027e-225
-1.14317e-230
-8.79764e-231
-4.7314e-236
-1.14317e-230
-6.14744e-236
-1.14317e-230
-6.14744e-236
-6.20306e-231
-3.33584e-236
-2.07027e-225
-1.14317e-230
-1.12333e-225
-6.20306e-231
-4.81747e-215
-2.80832e-220