<VTKFile type="UnstructuredGrid" version="0.1" byte_order="LittleEndian">
<UnstructuredGrid>
<Piece NumberOfPoints="2048" NumberOfCells="512">
<Points>
<DataArray type="Float64" NumberOfComponents="3" format="ascii">
0 0 0
0.125 0 0
0 0.125 0
0.125 0.125 0
0.125 0 0
0.25 0 0
0.125 0.125 0
0.25 0.125 0
0.125 0.125 0
0.25 0.125 0
0.125 0.25 0
0.25 0.25 0
0 0.125 0
0.125 0.125 0
0 0.25 0
0.125 0.25 0
0.25 0 0
0.375 0 0
0.25 0.125 0
0.375 0.125 0
0.375 0 0
0.5 0 0
0.375 0.125 0
0.5 0.125 0
0.375 0.125 0
0.5 0.125 0
0.375 0.25 0
0.5 0.25 0
0.25 0.125 0
0.375 0.125 0
0.25 0.25 0
0.375 0.25 0
0.25 0.25 0
0.375 0.25 0
0.25 0.375 0
0.375 0.375 0
0.375 0.25 0
0.5 0.25 0
0.375 0.375 0
0.5 0.375 0
0.375 0.375 0
0.5 0.375 0
0.375 0.5 0
0.5 0.5 0
0.25 0.375 0
0.375 0.375 0
0.25 0.5 0
0.375 0.5 0
0 0.25 0
0.125 0.25 0
0 0.375 0
0.125 0.375 0
0.125 0.25 0
0.25 0.25 0
0.125 0.375 0
0.25 0.375 0
0.125 0.375 0
0.25 0.375 0
0.125 0.5 0
0.25 0.5 0
0 0.375 0
0.125 0.375 0
0 0.5 0
0.125 0.5 0
0.5 0 0
0.625 0 0
0.5 0.125 0
0.625 0.125 0
0.625 0 0
0.75 0 0
0.625 0.125 0
0.75 0.125 0
0.625 0.125 0
0.75 0.125 0
0.625 0.25 0
0.75 0.25 0
0.5 0.125 0
0.625 0.125 0
0.5 0.25 0
0.625 0.25 0
0.75 0 0
0.875 0 0
0.75 0.125 0
0.875 0.125 0
0.875 0 0
1 0 0
0.875 0.125 0
1 0.125 0
0.875 0.125 0
1 0.125 0
0.875 0.25 0
1 0.25 0
0.75 0.125 0
0.875 0.125 0
0.75 0.25 0
0.875 0.25 0
0.75 0.25 0
0.875 0.25 0
0.75 0.375 0
0.875 0.375 0
0.875 0.25 0
1 0.25 0
0.875 0.375 0
1 0.375 0
0.875 0.375 0
1 0.375 0
0.875 0.5 0
1 0.5 0
0.75 0.375 0
0.875 0.375 0
0.75 0.5 0
0.875 0.5 0
0.5 0.25 0
0.625 0.25 0
0.5 0.375 0
0.625 0.375 0
0.625 0.25 0
0.75 0.25 0
0.625 0.375 0
0.75 0.375 0
0.625 0.375 0
0.75 0.375 0
0.625 0.5 0
0.75 0.5 0
0.5 0.375 0
0.625 0.375 0
0.5 0.5 0
0.625 0.5 0
0.5 0.5 0
0.625 0.5 0
0.5 0.625 0
0.625 0.625 0
0.625 0.5 0
0.75 0.5 0
0.625 0.625 0
0.75 0.625 0
0.625 0.625 0
0.75 0.625 0
0.625 0.75 0
0.75 0.75 0
0.5 0.625 0
0.625 0.625 0
0.5 0.75 0
0.625 0.75 0
0.75 0.5 0
0.875 0.5 0
0.75 0.625 0
0.875 0.625 0
0.875 0.5 0
1 0.5 0
0.875 0.625 0
1 0.625 0
0.875 0.625 0
1 0.625 0
0.875 0.75 0
1 0.75 0
0.75 0.625 0
0.875 0.625 0
0.75 0.75 0
0.875 0.75 0
0.75 0.75 0
0.875 0.75 0
0.75 0.875 0
0.875 0.875 0
0.875 0.75 0
1 0.75 0
0.875 0.875 0
1 0.875 0
0.875 0.875 0
1 0.875 0
0.875 1 0
1 1 0
0.75 0.875 0
0.875 0.875 0
0.75 1 0
0.875 1 0
0.5 0.75 0
0.625 0.75 0
0.5 0.875 0
0.625 0.875 0
0.625 0.75 0
0.75 0.75 0
0.625 0.875 0
0.75 0.875 0
0.625 0.875 0
0.75 0.875 0
0.625 1 0
0.75 1 0
0.5 0.875 0
0.625 0.875 0
0.5 1 0
0.625 1 0
0 0.5 0
0.125 0.5 0
0 0.625 0
0.125 0.625 0
0.125 0.5 0
0.25 0.5 0
0.125 0.625 0
0.25 0.625 0
0.125 0.625 0
0.25 0.625 0
0.125 0.75 0
0.25 0.75 0
0 0.625 0
0.125 0.625 0
0 0.75 0
0.125 0.75 0
0.25 0.5 0
0.375 0.5 0
0.25 0.625 0
0.375 0.625 0
0.375 0.5 0
0.5 0.5 0
0.375 0.625 0
0.5 0.625 0
0.375 0.625 0
0.5 0.625 0
0.375 0.75 0
0.5 0.75 0
0.25 0.625 0
0.375 0.625 0
0.25 0.75 0
0.375 0.75 0
0.25 0.75 0
0.375 0.75 0
0.25 0.875 0
0.375 0.875 0
0.375 0.75 0
0.5 0.75 0
0.375 0.875 0
0.5 0.875 0
0.375 0.875 0
0.5 0.875 0
0.375 1 0
0.5 1 0
0.25 0.875 0
0.375 0.875 0
0.25 1 0
0.375 1 0
0 0.75 0
0.125 0.75 0
0 0.875 0
0.125 0.875 0
0.125 0.75 0
0.25 0.75 0
0.125 0.875 0
0.25 0.875 0
0.125 0.875 0
0.25 0.875 0
0.125 1 0
0.25 1 0
0 0.875 0
0.125 0.875 0
0 1 0
0.125 1 0
1 0 0
1.125 0 0
1 0.125 0
1.125 0.125 0
1.125 0 0
1.25 0 0
1.125 0.125 0
1.25 0.125 0
1.125 0.125 0
1.25 0.125 0
1.125 0.25 0
1.25 0.25 0
1 0.125 0
1.125 0.125 0
1 0.25 0
1.125 0.25 0
1.25 0 0
1.375 0 0
1.25 0.125 0
1.375 0.125 0
1.375 0 0
1.5 0 0
1.375 0.125 0
1.5 0.125 0
1.375 0.125 0
1.5 0.125 0
1.375 0.25 0
1.5 0.25 0
1.25 0.125 0
1.375 0.125 0
1.25 0.25 0
1.375 0.25 0
1.25 0.25 0
1.375 0.25 0
1.25 0.375 0
1.375 0.375 0
1.375 0.25 0
1.5 0.25 0
1.375 0.375 0
1.5 0.375 0
1.375 0.375 0
1.5 0.375 0
1.375 0.5 0
1.5 0.5 0
1.25 0.375 0
1.375 0.375 0
1.25 0.5 0
1.375 0.5 0
1 0.25 0
1.125 0.25 0
1 0.375 0
1.125 0.375 0
1.125 0.25 0
1.25 0.25 0
1.125 0.375 0
1.25 0.375 0
1.125 0.375 0
1.25 0.375 0
1.125 0.5 0
1.25 0.5 0
1 0.375 0
1.125 0.375 0
1 0.5 0
1.125 0.5 0
1.5 0 0
1.625 0 0
1.5 0.125 0
1.625 0.125 0
1.625 0 0
1.75 0 0
1.625 0.125 0
1.75 0.125 0
1.625 0.125 0
1.75 0.125 0
1.625 0.25 0
1.75 0.25 0
1.5 0.125 0
1.625 0.125 0
1.5 0.25 0
1.625 0.25 0
1.75 0 0
1.875 0 0
1.75 0.125 0
1.875 0.125 0
1.875 0 0
2 0 0
1.875 0.125 0
2 0.125 0
1.875 0.125 0
2 0.125 0
1.875 0.25 0
2 0.25 0
1.75 0.125 0
1.875 0.125 0
1.75 0.25 0
1.875 0.25 0
1.75 0.25 0
1.875 0.25 0
1.75 0.375 0
1.875 0.375 0
1.875 0.25 0
2 0.25 0
1.875 0.375 0
2 0.375 0
1.875 0.375 0
2 0.375 0
1.875 0.5 0
2 0.5 0
1.75 0.375 0
1.875 0.375 0
1.75 0.5 0
1.875 0.5 0
1.5 0.25 0
1.625 0.25 0
1.5 0.375 0
1.625 0.375 0
1.625 0.25 0
1.75 0.25 0
1.625 0.375 0
1.75 0.375 0
1.625 0.375 0
1.75 0.375 0
1.625 0.5 0
1.75 0.5 0
1.5 0.375 0
1.625 0.375 0
1.5 0.5 0
1.625 0.5 0
1.5 0.5 0
1.625 0.5 0
1.5 0.625 0
1.625 0.625 0
1.625 0.5 0
1.75 0.5 0
1.625 0.625 0
1.75 0.625 0
1.625 0.625 0
1.75 0.625 0
1.625 0.75 0
1.75 0.75 0
1.5 0.625 0
1.625 0.625 0
1.5 0.75 0
1.625 0.75 0
1.75 0.5 0
1.875 0.5 0
1.75 0.625 0
1.875 0.625 0
1.875 0.5 0
2 0.5 0
1.875 0.625 0
2 0.625 0
1.875 0.625 0
2 0.625 0
1.875 0.75 0
2 0.75 0
1.75 0.625 0
1.875 0.625 0
1.75 0.75 0
1.875 0.75 0
1.75 0.75 0
1.875 0.75 0
1.75 0.875 0
1.875 0.875 0
1.875 0.75 0
2 0.75 0
1.875 0.875 0
2 0.875 0
1.875 0.875 0
2 0.875 0
1.875 1 0
2 1 0
1.75 0.875 0
1.875 0.875 0
1.75 1 0
1.875 1 0
1.5 0.75 0
1.625 0.75 0
1.5 0.875 0
1.625 0.875 0
1.625 0.75 0
1.75 0.75 0
1.625 0.875 0
1.75 0.875 0
1.625 0.875 0
1.75 0.875 0
1.625 1 0
1.75 1 0
1.5 0.875 0
1.625 0.875 0
1.5 1 0
1.625 1 0
1 0.5 0
1.125 0.5 0
1 0.625 0
1.125 0.625 0
1.125 0.5 0
1.25 0.5 0
1.125 0.625 0
1.25 0.625 0
1.125 0.625 0
1.25 0.625 0
1.125 0.75 0
1.25 0.75 0
1 0.625 0
1.125 0.625 0
1 0.75 0
1.125 0.75 0
1.25 0.5 0
1.375 0.5 0
1.25 0.625 0
1.375 0.625 0
1.375 0.5 0
1.5 0.5 0
1.375 0.625 0
1.5 0.625 0
1.375 0.625 0
1.5 0.625 0
1.375 0.75 0
1.5 0.75 0
1.25 0.625 0
1.375 0.625 0
1.25 0.75 0
1.375 0.75 0
1.25 0.75 0
1.375 0.75 0
1.25 0.875 0
1.375 0.875 0
1.375 0.75 0
1.5 0.75 0
1.375 0.875 0
1.5 0.875 0
1.375 0.875 0
1.5 0.875 0
1.375 1 0
1.5 1 0
1.25 0.875 0
1.375 0.875 0
1.25 1 0
1.375 1 0
1 0.75 0
1.125 0.75 0
1 0.875 0
1.125 0.875 0
1.125 0.75 0
1.25 0.75 0
1.125 0.875 0
1.25 0.875 0
1.125 0.875 0
1.25 0.875 0
1.125 1 0
1.25 1 0
1 0.875 0
1.125 0.875 0
1 1 0
1.125 1 0
2 0 0
2.125 0 0
2 0.125 0
2.125 0.125 0
2.125 0 0
2.25 0 0
2.125 0.125 0
2.25 0.125 0
2.125 0.125 0
2.25 0.125 0
2.125 0.25 0
2.25 0.25 0
2 0.125 0
2.125 0.125 0
2 0.25 0
2.125 0.25 0
2.25 0 0
2.375 0 0
2.25 0.125 0
2.375 0.125 0
2.375 0 0
2.5 0 0
2.375 0.125 0
2.5 0.125 0
2.375 0.125 0
2.5 0.125 0
2.375 0.25 0
2.5 0.25 0
2.25 0.125 0
2.375 0.125 0
2.25 0.25 0
2.375 0.25 0
2.25 0.25 0
2.375 0.25 0
2.25 0.375 0
2.375 0.375 0
2.375 0.25 0
2.5 0.25 0
2.375 0.375 0
2.5 0.375 0
2.375 0.375 0
2.5 0.375 0
2.375 0.5 0
2.5 0.5 0
2.25 0.375 0
2.375 0.375 0
2.25 0.5 0
2.375 0.5 0
2 0.25 0
2.125 0.25 0
2 0.375 0
2.125 0.375 0
2.125 0.25 0
2.25 0.25 0
2.125 0.375 0
2.25 0.375 0
2.125 0.375 0
2.25 0.375 0
2.125 0.5 0
2.25 0.5 0
2 0.375 0
2.125 0.375 0
2 0.5 0
2.125 0.5 0
2.5 0 0
2.625 0 0
2.5 0.125 0
2.625 0.125 0
2.625 0 0
2.75 0 0
2.625 0.125 0
2.75 0.125 0
2.625 0.125 0
2.75 0.125 0
2.625 0.25 0
2.75 0.25 0
2.5 0.125 0
2.625 0.125 0
2.5 0.25 0
2.625 0.25 0
2.75 0 0
2.875 0 0
2.75 0.125 0
2.875 0.125 0
2.875 0 0
3 0 0
2.875 0.125 0
3 0.125 0
2.875 0.125 0
3 0.125 0
2.875 0.25 0
3 0.25 0
2.75 0.125 0
2.875 0.125 0
2.75 0.25 0
2.875 0.25 0
2.75 0.25 0
2.875 0.25 0
2.75 0.375 0
2.875 0.375 0
2.875 0.25 0
3 0.25 0
2.875 0.375 0
3 0.375 0
2.875 0.375 0
3 0.375 0
2.875 0.5 0
3 0.5 0
2.75 0.375 0
2.875 0.375 0
2.75 0.5 0
2.875 0.5 0
2.5 0.25 0
2.625 0.25 0
2.5 0.375 0
2.625 0.375 0
2.625 0.25 0
2.75 0.25 0
2.625 0.375 0
2.75 0.375 0
2.625 0.375 0
2.75 0.375 0
2.625 0.5 0
2.75 0.5 0
2.5 0.375 0
2.625 0.375 0
2.5 0.5 0
2.625 0.5 0
2.5 0.5 0
2.625 0.5 0
2.5 0.625 0
2.625 0.625 0
2.625 0.5 0
2.75 0.5 0
2.625 0.625 0
2.75 0.625 0
2.625 0.625 0
2.75 0.625 0
2.625 0.75 0
2.75 0.75 0
2.5 0.625 0
2.625 0.625 0
2.5 0.75 0
2.625 0.75 0
2.75 0.5 0
2.875 0.5 0
2.75 0.625 0
2.875 0.625 0
2.875 0.5 0
3 0.5 0
2.875 0.625 0
3 0.625 0
2.875 0.625 0
3 0.625 0
2.875 0.75 0
3 0.75 0
2.75 0.625 0
2.875 0.625 0
2.75 0.75 0
2.875 0.75 0
2.75 0.75 0
2.875 0.75 0
2.75 0.875 0
2.875 0.875 0
2.875 0.75 0
3 0.75 0
2.875 0.875 0
3 0.875 0
2.875 0.875 0
3 0.875 0
2.875 1 0
3 1 0
2.75 0.875 0
2.875 0.875 0
2.75 1 0
2.875 1 0
2.5 0.75 0
2.625 0.75 0
2.5 0.875 0
2.625 0.875 0
2.625 0.75 0
2.75 0.75 0
2.625 0.875 0
2.75 0.875 0
2.625 0.875 0
2.75 0.875 0
2.625 1 0
2.75 1 0
2.5 0.875 0
2.625 0.875 0
2.5 1 0
2.625 1 0
2 0.5 0
2.125 0.5 0
2 0.625 0
2.125 0.625 0
2.125 0.5 0
2.25 0.5 0
2.125 0.625 0
2.25 0.625 0
2.125 0.625 0
2.25 0.625 0
2.125 0.75 0
2.25 0.75 0
2 0.625 0
2.125 0.625 0
2 0.75 0
2.125 0.75 0
2.25 0.5 0
2.375 0.5 0
2.25 0.625 0
2.375 0.625 0
2.375 0.5 0
2.5 0.5 0
2.375 0.625 0
2.5 0.625 0
2.375 0.625 0
2.5 0.625 0
2.375 0.75 0
2.5 0.75 0
2.25 0.625 0
2.375 0.625 0
2.25 0.75 0
2.375 0.75 0
2.25 0.75 0
2.375 0.75 0
2.25 0.875 0
2.375 0.875 0
2.375 0.75 0
2.5 0.75 0
2.375 0.875 0
2.5 0.875 0
2.375 0.875 0
2.5 0.875 0
2.375 1 0
2.5 1 0
2.25 0.875 0
2.375 0.875 0
2.25 1 0
2.375 1 0
2 0.75 0
2.125 0.75 0
2 0.875 0
2.125 0.875 0
2.125 0.75 0
2.25 0.75 0
2.125 0.875 0
2.25 0.875 0
2.125 0.875 0
2.25 0.875 0
2.125 1 0
2.25 1 0
2 0.875 0
2.125 0.875 0
2 1 0
2.125 1 0
3 0 0
3.125 0 0
3 0.125 0
3.125 0.125 0
3.125 0 0
3.25 0 0
3.125 0.125 0
3.25 0.125 0
3.125 0.125 0
3.25 0.125 0
3.125 0.25 0
3.25 0.25 0
3 0.125 0
3.125 0.125 0
3 0.25 0
3.125 0.25 0
3.25 0 0
3.375 0 0
3.25 0.125 0
3.375 0.125 0
3.375 0 0
3.5 0 0
3.375 0.125 0
3.5 0.125 0
3.375 0.125 0
3.5 0.125 0
3.375 0.25 0
3.5 0.25 0
3.25 0.125 0
3.375 0.125 0
3.25 0.25 0
3.375 0.25 0
3.25 0.25 0
3.375 0.25 0
3.25 0.375 0
3.375 0.375 0
3.375 0.25 0
3.5 0.25 0
3.375 0.375 0
3.5 0.375 0
3.375 0.375 0
3.5 0.375 0
3.375 0.5 0
3.5 0.5 0
3.25 0.375 0
3.375 0.375 0
3.25 0.5 0
[...]
<CellData Scalars="attribute">
<DataArray type="Int32" Name="attribute" format="ascii">
1
1
1
1
1
1
1
1
1
1
1
1
1
1
1
1
1
1
1
1
1
1
1
1
1
1
1
1
1
1
1
1
1
1
1
1
1
1
1
1
1
1
1
1
1
1
1
1
1
1
1
1
1
1
1
1
1
1
1
1
1
1
1
1
1
1
1
1
1
1
1
1
1
1
1
1
1
1
1
1
1
1
1
1
1
1
1
1
1
1
1
1
1
1
1
1
1
1
1
1
1
1
1
1
1
1
1
1
1
1
1
1
1
1
1
1
1
1
1
1
1
1
1
1
1
1
1
1
1
1
1
1
1
1
1
1
1
1
1
1
1
1
1
1
1
1
1
1
1
1
1
1
1
1
1
1
1
1
1
1
1
1
1
1
1
1
1
1
1
1
1
1
1
1
1
1
1
1
1
1
1
1
1
1
1
1
1
1
1
1
1
1
1
1
1
1
1
1
1
1
1
1
1
1
1
1
1
1
1
1
1
1
1
1
1
1
1
1
1
1
1
1
1
1
1
1
1
1
1
1
1
1
1
1
1
1
1
1
1
1
1
1
1
1
1
1
1
1
1
1
1
1
1
1
1
1
2
2
2
2
2
2
2
2
2
2
2
2
2
2
2
2
2
2
2
2
2
2
2
2
2
2
2
2
2
2
2
2
2
2
2
2
2
2
2
2
2
2
2
2
2
2
2
2
2
2
2
2
2
2
2
2
2
2
2
2
2
2
2
2
2
2
2
2
2
2
2
2
2
2
2
2
2
2
2
2
2
2
2
2
2
2
2
2
2
2
2
2
2
2
2
2
2
2
2
2
2
2
2
2
2
2
2
2
2
2
2
2
2
2
2
2
2
2
2
2
2
2
2
2
2
2
2
2
2
2
2
2
2
2
2
2
2
2
2
2
2
2
2
2
2
2
2
2
2
2
2
2
2
2
2
2
2
2
2
2
2
2
2
2
2
2
2
2
2
2
2
2
2
2
2
2
2
2
2
2
2
2
2
2
2
2
2
2
2
2
2
2
2
2
2
2
2
2
2
2
2
2
2
2
2
2
2
2
2
2
2
2
2
2
2
2
2
2
2
2
2
2
2
2
2
2
2
2
2
2
2
2
2
2
2
2
2
2
2
2
2
2
2
2
2
2
2
2
2
2
2
2
2
2
2
2
</DataArray>
</CellData>
<PointData >
<DataArray type="Float64" Name="Pressure" NumberOfComponents="1" format="ascii" >
-1.67618e-05
-1.67421e-09
-2.74284e-05
-2.77136e-09
-1.67421e-09
7.08001e-15
-2.77136e-09
1.22601e-14
-2.77136e-09
1.22601e-14
-1.86053e-09
8.3254e-15
-2.74284e-05
-2.77136e-09
-1.82856e-05
-1.86053e-09
7.08001e-15
-1.84591e-20
1.22601e-14
-3.29535e-20
-1.84591e-20
4.60539e-26
-3.29535e-20
8.52337e-26
-3.29535e-20
8.52337e-26
-2.29435e-20
6.09493e-26
1.22601e-14
-3.29535e-20
8.3254e-15
-2.29435e-20
8.3254e-15
-2.29435e-20
4.26633e-15
-1.17236e-20
-2.29435e-20
6.09493e-26
-1.17236e-20
3.11765e-26
-1.17236e-20
3.11765e-26
-3.87744e-22
9.88421e-28
4.26633e-15
-1.17236e-20
1.50224e-16
-3.87744e-22
-1.82856e-05
-1.86053e-09
-9.14282e-06
-9.44763e-10
-1.86053e-09
8.3254e-15
-9.44763e-10
4.26633e-15
-9.44763e-10
4.26633e-15
-2.09211e-11
1.50224e-16
-9.14282e-06
-9.44763e-10
-2.57486e-11
-2.09211e-11
4.60539e-26
-5.5034e-32
8.52337e-26
-1.0555e-31
-5.5034e-32
1.02116e-37
-1.0555e-31
1.96957e-37
-1.0555e-31
1.96957e-37
-7.81774e-32
1.47978e-37
8.52337e-26
-1.0555e-31
6.09493e-26
-7.81774e-32
1.02116e-37
-3.99557e-44
1.96957e-37
-8.4912e-44
-3.99557e-44
7.63302e-50
-8.4912e-44
1.49439e-49
-8.4912e-44
1.49439e-49
-6.86161e-44
1.15716e-49
1.96957e-37
-8.4912e-44
1.47978e-37
-6.86161e-44
1.47978e-37
-6.86161e-44
7.69286e-38
-3.61758e-44
-6.86161e-44
1.15716e-49
-3.61758e-44
6.14493e-50
-3.61758e-44
6.14493e-50
-1.04198e-45
1.5644e-51
7.69286e-38
-3.61758e-44
2.20576e-39
-1.04198e-45
6.09493e-26
-7.81774e-32
3.11765e-26
-4.02342e-32
-7.81774e-32
1.47978e-37
-4.02342e-32
7.69286e-38
-4.02342e-32
7.69286e-38
-1.22798e-33
2.20576e-39
3.11765e-26
-4.02342e-32
9.88421e-28
-1.22798e-33
9.88421e-28
-1.22798e-33
-2.96204e-26
3.83202e-32
-1.22798e-33
2.20576e-39
3.83202e-32
-7.35633e-38
3.83202e-32
-7.35633e-38
7.78972e-32
-1.47587e-37
-2.96204e-26
3.83202e-32
-6.06628e-26
7.78972e-32
2.20576e-39
-1.04198e-45
-7.35633e-38
3.45971e-44
-1.04198e-45
1.5644e-51
3.45971e-44
-5.91299e-50
3.45971e-44
-5.91299e-50
6.84312e-44
-1.15528e-49
-7.35633e-38
3.45971e-44
-1.47587e-37
6.84312e-44
-1.47587e-37
6.84312e-44
-2.00099e-37
8.62047e-44
6.84312e-44
-1.15528e-49
8.62047e-44
-1.5153e-49
8.62047e-44
-1.5153e-49
4.08271e-44
-7.78075e-50
-2.00099e-37
8.62047e-44
-1.04414e-37
4.08271e-44
-6.06628e-26
7.78972e-32
-8.67521e-26
1.07346e-31
7.78972e-32
-1.47587e-37
1.07346e-31
-2.00099e-37
1.07346e-31
-2.00099e-37
5.63689e-32
-1.04414e-37
-8.67521e-26
1.07346e-31
-4.72641e-26
5.63689e-32
-2.57486e-11
-2.09211e-11
9.14278e-06
9.10998e-10
-2.09211e-11
1.50224e-16
9.10998e-10
-4.02442e-15
9.10998e-10
-4.02442e-15
1.85099e-09
-8.25893e-15
9.14278e-06
9.10998e-10
1.82856e-05
1.85099e-09
1.50224e-16
-3.87744e-22
-4.02442e-15
1.11055e-20
-3.87744e-22
9.88421e-28
1.11055e-20
-2.96204e-26
1.11055e-20
-2.96204e-26
2.27997e-20
-6.06628e-26
-4.02442e-15
1.11055e-20
-8.25893e-15
2.27997e-20
-8.25893e-15
2.27997e-20
-1.24867e-14
3.35661e-20
2.27997e-20
-6.06628e-26
3.35661e-20
-8.67521e-26
3.35661e-20
-8.67521e-26
1.89807e-20
-4.72641e-26
-1.24867e-14
3.35661e-20
-7.31204e-15
1.89807e-20
1.82856e-05
1.85099e-09
2.74284e-05
2.80254e-09
1.85099e-09
-8.25893e-15
2.80254e-09
-1.24867e-14
2.80254e-09
-1.24867e-14
1.70724e-09
-7.31204e-15
2.74284e-05
2.80254e-09
1.67618e-05
1.70724e-09
7.63302e-50
2.12051e-57
1.49439e-49
6.68461e-58
2.12051e-57
-1.53793e-62
6.68461e-58
-2.98446e-62
6.68461e-58
-2.98446e-62
-1.51205e-57
-2.32922e-62
1.49439e-49
6.68461e-58
1.15716e-49
-1.51205e-57
-1.53793e-62
-1.83357e-68
-2.98446e-62
-3.10152e-68
-1.83357e-68
-2.79443e-74
-3.10152e-68
-5.32543e-74
-3.10152e-68
-5.32543e-74
-2.13964e-68
-4.13385e-74
-2.98446e-62
-3.10152e-68
-2.32922e-62
-2.13964e-68
-2.32922e-62
-2.13964e-68
-1.25531e-62
-1.11511e-68
-2.13964e-68
-4.13385e-74
-1.11511e-68
-2.24146e-74
-1.11511e-68
-2.24146e-74
-1.87309e-70
-4.26416e-76
-1.25531e-62
-1.11511e-68
-2.78122e-64
-1.87309e-70
1.15716e-49
-1.51205e-57
6.14493e-50
-1.01245e-57
-1.51205e-57
-2.32922e-62
-1.01245e-57
-1.25531e-62
-1.01245e-57
-1.25531e-62
-5.54518e-59
-2.78122e-64
6.14493e-50
-1.01245e-57
1.5644e-51
-5.54518e-59
-2.79443e-74
-2.86626e-81
-5.32543e-74
-5.137e-81
-2.86626e-81
1.34986e-86
-5.137e-81
2.53544e-86
-5.137e-81
2.53544e-86
-3.77347e-81
1.95457e-86
-5.32543e-74
-5.137e-81
-4.13385e-74
-3.77347e-81
1.34986e-86
1.16304e-92
2.53544e-86
2.12347e-92
1.16304e-92
2.17459e-99
2.12347e-92
4.0509e-99
2.12347e-92
4.0509e-99
1.59506e-92
3.11088e-99
2.53544e-86
2.12347e-92
1.95457e-86
1.59506e-92
1.95457e-86
1.59506e-92
1.06127e-86
8.5754e-93
1.59506e-92
3.11088e-99
8.5754e-93
1.68946e-99
8.5754e-93
1.68946e-99
1.23326e-94
2.36692e-101
1.06127e-86
8.5754e-93
1.72908e-88
1.23326e-94
-4.13385e-74
-3.77347e-81
-2.24146e-74
-2.00912e-81
-3.77347e-81
1.95457e-86
-2.00912e-81
1.06127e-86
-2.00912e-81
1.06127e-86
-3.22749e-83
1.72908e-88
-2.24146e-74
-2.00912e-81
-4.26416e-76
-3.22749e-83
-4.26416e-76
-3.22749e-83
2.18008e-74
1.96346e-81
-3.22749e-83
1.72908e-88
1.96346e-81
-1.03655e-86
1.96346e-81
-1.03655e-86
3.77472e-81
-1.95389e-86
2.18008e-74
1.96346e-81
4.13124e-74
3.77472e-81
1.72908e-88
1.23326e-94
-1.03655e-86
-8.40099e-93
1.23326e-94
2.36692e-101
-8.40099e-93
-1.65579e-99
-8.40099e-93
-1.65579e-99
-1.59531e-92
-3.11033e-99
-1.03655e-86
-8.40099e-93
-1.95389e-86
-1.59531e-92
-1.95389e-86
-1.59531e-92
-2.55877e-86
-2.14186e-92
-1.59531e-92
-3.11033e-99
-2.14186e-92
-4.08343e-99
-2.14186e-92
-4.08343e-99
-1.17614e-92
-2.19767e-99
-2.55877e-86
-2.14186e-92
-1.36639e-86
-1.17614e-92
4.13124e-74
3.77472e-81
5.38168e-74
5.18795e-81
3.77472e-81
-1.95389e-86
5.18795e-81
-2.55877e-86
5.18795e-81
-2.55877e-86
2.90302e-81
-1.36639e-86
5.38168e-74
5.18795e-81
2.83412e-74
2.90302e-81
1.5644e-51
-5.54518e-59
-5.91299e-50
9.25789e-58
-5.54518e-59
-2.78122e-64
9.25789e-58
1.21483e-62
9.25789e-58
1.21483e-62
1.48485e-57
2.3268e-62
-5.91299e-50
9.25789e-58
-1.15528e-49
1.48485e-57
-2.78122e-64
-1.87309e-70
1.21483e-62
1.08874e-68
-1.87309e-70
-4.26416e-76
1.08874e-68
2.18008e-74
1.08874e-68
2.18008e-74
2.14164e-68
4.13124e-74
1.21483e-62
1.08874e-68
2.3268e-62
2.14164e-68
2.3268e-62
2.14164e-68
3.02075e-62
3.13652e-68
2.14164e-68
4.13124e-74
3.13652e-68
5.38168e-74
3.13652e-68
5.38168e-74
1.85985e-68
2.83412e-74
3.02075e-62
3.13652e-68
1.56343e-62
1.85985e-68
-1.15528e-49
1.48485e-57
-1.5153e-49
-6.71213e-58
1.48485e-57
2.3268e-62
-6.71213e-58
3.02075e-62
-6.71213e-58
3.02075e-62
-2.14097e-57
1.56343e-62
-1.5153e-49
-6.71213e-58
-7.78075e-50
-2.14097e-57
2.17459e-99
-4.63994e-105
4.0509e-99
-8.53438e-105
-4.63994e-105
-3.83281e-111
-8.53438e-105
-7.11058e-111
-8.53438e-105
-7.11058e-111
-6.4789e-105
-5.45392e-111
4.0509e-99
-8.53438e-105
3.11088e-99
-6.4789e-105
-3.83281e-111
-6.79335e-119
-7.11058e-111
-1.25325e-118
-6.79335e-119
1.41853e-123
-1.25325e-118
2.62643e-123
-1.25325e-118
2.62643e-123
-9.56691e-119
2.01477e-123
-7.11058e-111
-1.25325e-118
-5.45392e-111
-9.56691e-119
-5.45392e-111
-9.56691e-119
-2.96255e-111
-5.18538e-119
-9.56691e-119
2.01477e-123
-5.18538e-119
1.09476e-123
-5.18538e-119
1.09476e-123
-5.76643e-121
1.15029e-125
-2.96255e-111
-5.18538e-119
-3.58717e-113
-5.76643e-121
3.11088e-99
-6.4789e-105
1.68946e-99
-3.50152e-105
-6.4789e-105
-5.45392e-111
-3.50152e-105
-2.96255e-111
-3.50152e-105
-2.96255e-111
-4.44058e-107
-3.58717e-113
1.68946e-99
-3.50152e-105
2.36692e-101
-4.44058e-107
1.41853e-123
6.41778e-130
2.62643e-123
1.18536e-129
6.41778e-130
-1.97031e-136
1.18536e-129
-3.64435e-136
1.18536e-129
-3.64435e-136
9.07712e-130
-2.79737e-136
2.62643e-123
1.18536e-129
2.01477e-123
9.07712e-130
-1.97031e-136
-2.58108e-142
-3.64435e-136
-4.76872e-142
-2.58108e-142
-3.01118e-149
-4.76872e-142
-5.56619e-149
-4.76872e-142
-5.56619e-149
-3.65855e-142
-4.27555e-149
-3.64435e-136
-4.76872e-142
-2.79737e-136
-3.65855e-142
-2.79737e-136
-3.65855e-142
-1.52044e-136
-1.98782e-142
-3.65855e-142
-4.27555e-149
-1.98782e-142
-2.32436e-149
-1.98782e-142
-2.32436e-149
-1.69028e-144
-1.85242e-151
-1.52044e-136
-1.98782e-142
-1.39009e-138
-1.69028e-144
2.01477e-123
9.07712e-130
1.09476e-123
4.92776e-130
9.07712e-130
-2.79737e-136
4.92776e-130
-1.52044e-136
4.92776e-130
-1.52044e-136
4.79409e-132
-1.39009e-138
1.09476e-123
4.92776e-130
1.15029e-125
4.79409e-132
1.15029e-125
4.79409e-132
-1.07846e-123
-4.85997e-130
4.79409e-132
-1.39009e-138
-4.85997e-130
1.50076e-136
-4.85997e-130
1.50076e-136
-9.07724e-130
2.79729e-136
-1.07846e-123
-4.85997e-130
-2.01468e-123
-9.07724e-130
-1.39009e-138
-1.69028e-144
1.50076e-136
1.96392e-142
-1.69028e-144
-1.85242e-151
1.96392e-142
2.29814e-149
1.96392e-142
2.29814e-149
3.65854e-142
4.27546e-149
1.50076e-136
1.96392e-142
2.79729e-136
3.65854e-142
2.79729e-136
3.65854e-142
3.66382e-136
4.79255e-142
3.65854e-142
4.27546e-149
4.79255e-142
5.59213e-149
4.79255e-142
5.59213e-149
2.59795e-142
3.02956e-149
3.66382e-136
4.79255e-142
1.98411e-136
2.59795e-142
-2.01468e-123
-9.07724e-130
-2.6425e-123
-1.19215e-129
-9.07724e-130
2.79729e-136
-1.19215e-129
3.66382e-136
-1.19215e-129
3.66382e-136
-6.46589e-130
1.98411e-136
-2.6425e-123
-1.19215e-129
-1.42993e-123
-6.46589e-130
2.36692e-101
-4.44058e-107
-1.65579e-99
3.43874e-105
-4.44058e-107
-3.58717e-113
3.43874e-105
2.91165e-111
3.43874e-105
2.91165e-111
6.4794e-105
5.45344e-111
-1.65579e-99
3.43874e-105
-3.11033e-99
6.4794e-105
-3.58717e-113
-5.76643e-121
2.91165e-111
5.10386e-119
-5.76643e-121
1.15029e-125
5.10386e-119
-1.07846e-123
5.10386e-119
-1.07846e-123
9.56726e-119
-2.01468e-123
2.91165e-111
5.10386e-119
5.45344e-111
9.56726e-119
5.45344e-111
9.56726e-119
7.16044e-111
1.2615e-118
9.56726e-119
-2.01468e-123
1.2615e-118
-2.6425e-123
1.2615e-118
-2.6425e-123
6.85174e-119
-1.42993e-123
7.16044e-111
1.2615e-118
3.86817e-111
6.85174e-119
-3.11033e-99
6.4794e-105
-4.08343e-99
8.59879e-105
6.4794e-105
5.45344e-111
8.59879e-105
7.16044e-111
8.59879e-105
7.16044e-111
4.68564e-105
3.86817e-111
-4.08343e-99
8.59879e-105
-2.19767e-99
4.68564e-105
-3.01118e-149
5.46509e-155
-5.56619e-149
1.00967e-154
5.46509e-155
2.08014e-161
1.00967e-154
3.8435e-161
1.00967e-154
3.8435e-161
7.75528e-155
2.95416e-161
-5.56619e-149
1.00967e-154
-4.27555e-149
7.75528e-155
2.08014e-161
-6.42203e-168
3.8435e-161
-1.18623e-167
-6.42203e-168
-5.18621e-174
-1.18623e-167
-9.57926e-174
-1.18623e-167
-9.57926e-174
-9.11863e-168
-7.36654e-174
3.8435e-161
-1.18623e-167
2.95416e-161
-9.11863e-168
2.95416e-161
-9.11863e-168
1.60619e-161
-4.95754e-168
-9.11863e-168
-7.36654e-174
-4.95754e-168
-4.00536e-174
-4.95754e-168
-4.00536e-174
-3.21911e-170
-2.43319e-176
1.60619e-161
-4.95754e-168
1.11711e-163
-3.21911e-170
-4.27555e-149
7.75528e-155
-2.32436e-149
4.21553e-155
7.75528e-155
2.95416e-161
4.21553e-155
1.60619e-161
4.21553e-155
1.60619e-161
3.13224e-157
1.11711e-163
-2.32436e-149
4.21553e-155
-1.85242e-151
3.13224e-157
-5.18621e-174
1.6107e-181
-9.57926e-174
2.97444e-181
1.6107e-181
8.25024e-187
2.97444e-181
1.5234e-186
2.97444e-181
1.5234e-186
2.28773e-181
1.17199e-186
-9.57926e-174
2.97444e-181
-7.36654e-174
2.28773e-181
8.25024e-187
9.0013e-194
1.5234e-186
1.66181e-193
9.0013e-194
-9.34064e-200
1.66181e-193
-1.72426e-199
1.66181e-193
-1.72426e-199
1.27865e-193
-1.32694e-199
1.5234e-186
1.66181e-193
1.17199e-186
1.27865e-193
1.17199e-186
1.27865e-193
6.37222e-187
6.95186e-194
1.27865e-193
-1.32694e-199
6.95186e-194
-7.21424e-200
6.95186e-194
-7.21424e-200
3.45063e-196
-3.34959e-202
6.37222e-187
6.95186e-194
3.38329e-189
3.45063e-196
-7.36654e-174
2.28773e-181
-4.00536e-174
1.24384e-181
2.28773e-181
1.17199e-186
1.24384e-181
6.37222e-187
1.24384e-181
6.37222e-187
7.06007e-184
3.38329e-189
-4.00536e-174
1.24384e-181
-2.43319e-176
7.06007e-184
-2.43319e-176
7.06007e-184
3.9709e-174
-1.23384e-181
7.06007e-184
3.38329e-189
-1.23384e-181
-6.32428e-187
-1.23384e-181
-6.32428e-187
-2.28767e-181
-1.17196e-186
3.9709e-174
-1.23384e-181
7.36635e-174
-2.28767e-181
3.38329e-189
3.45063e-196
-6.32428e-187
-6.90296e-194
3.45063e-196
-3.34959e-202
-6.90296e-194
7.16676e-200
-6.90296e-194
7.16676e-200
-1.27862e-193
1.3269e-199
-6.32428e-187
-6.90296e-194
-1.17196e-186
-1.27862e-193
-1.17196e-186
-1.27862e-193
-1.52811e-186
-1.6666e-193
-1.27862e-193
1.3269e-199
-1.6666e-193
1.72891e-199
-1.6666e-193
1.72891e-199
-9.03526e-194
9.37354e-200
-1.52811e-186
-1.6666e-193
-8.28358e-187
-9.03526e-194
7.36635e-174
-2.28767e-181
9.61321e-174
-2.98428e-181
-2.28767e-181
-1.17196e-186
-2.98428e-181
-1.52811e-186
-2.98428e-181
-1.52811e-186
-1.61767e-181
-8.28358e-187
9.61321e-174
-2.98428e-181
5.21026e-174
-1.61767e-181
-1.85242e-151
3.13224e-157
2.29814e-149
-4.17121e-155
3.13224e-157
1.11711e-163
-4.17121e-155
-1.59037e-161
-4.17121e-155
-1.59037e-161
-7.75519e-155
-2.95409e-161
2.29814e-149
-4.17121e-155
4.27546e-149
-7.75519e-155
1.11711e-163
-3.21911e-170
-1.59037e-161
4.91198e-168
-3.21911e-170
-2.43319e-176
4.91198e-168
3.9709e-174
4.91198e-168
3.9709e-174
9.11846e-168
7.36635e-174
-1.59037e-161
4.91198e-168
-2.95409e-161
9.11846e-168
-2.95409e-161
9.11846e-168
-3.85912e-161
1.19074e-167
9.11846e-168
7.36635e-174
1.19074e-167
9.61321e-174
1.19074e-167
9.61321e-174
6.45393e-168
5.21026e-174
-3.85912e-161
1.19074e-167
-2.09121e-161
6.45393e-168
4.27546e-149
-7.75519e-155
5.59213e-149
-1.01407e-154
-7.75519e-155
-2.95409e-161
-1.01407e-154
-3.85912e-161
-1.01407e-154
-3.85912e-161
-5.49623e-155
-2.09121e-161
5.59213e-149
-1.01407e-154
3.02956e-149
-5.49623e-155
-9.34064e-200
-1.94486e-206
-1.72426e-199
-3.58967e-206
-1.94486e-206
7.85451e-213
-3.58967e-206
1.44956e-212
-3.58967e-206
1.44956e-212
-2.76284e-206
1.11582e-212
-1.72426e-199
-3.58967e-206
-1.32694e-199
-2.76284e-206
7.85451e-213
2.272e-219
1.44956e-212
4.19249e-219
2.272e-219
-5.05511e-226
4.19249e-219
-9.32711e-226
4.19249e-219
-9.32711e-226
3.22755e-219
-7.18109e-226
1.44956e-212
4.19249e-219
1.11582e-212
3.22755e-219
1.11582e-212
3.22755e-219
6.06589e-213
1.7545e-219
3.22755e-219
-7.18109e-226
1.7545e-219
-3.90346e-226
1.7545e-219
-3.90346e-226
6.66761e-222
-1.38809e-228
6.06589e-213
1.7545e-219
2.46415e-215
6.66761e-222
-1.32694e-199
-2.76284e-206
-7.21424e-200
-1.50202e-206
-2.76284e-206
1.11582e-212
-1.50202e-206
6.06589e-213
-1.50202e-206
6.06589e-213
-6.52207e-209
2.46415e-215
-7.21424e-200
-1.50202e-206
-3.34959e-202
-6.52207e-209
-5.05511e-226
-1.76654e-232
-9.32711e-226
-3.25907e-232
-1.76654e-232
2.58767e-239
-3.25907e-232
4.7735e-239
-3.25907e-232
4.7735e-239
-2.50942e-232
3.67577e-239
-9.32711e-226
-3.25907e-232
-7.18109e-226
-2.50942e-232
2.58767e-239
9.32291e-246
4.7735e-239
1.71964e-245
9.32291e-246
-1.09003e-252
1.71964e-245
-2.01042e-252
1.71964e-245
-2.01042e-252
1.32427e-245
-1.54829e-252
4.7735e-239
1.71964e-245
3.67577e-239
1.32427e-245
3.67577e-239
1.32427e-245
1.99785e-239
7.19732e-246
1.32427e-245
-1.54829e-252
7.19732e-246
-8.41444e-253
7.19732e-246
-8.41444e-253
2.09819e-248
-2.29654e-255
1.99785e-239
7.19732e-246
6.22228e-242
2.09819e-248
-7.18109e-226
-2.50942e-232
-3.90346e-226
-1.36399e-232
-2.50942e-232
3.67577e-239
-1.36399e-232
1.99785e-239
-1.36399e-232
1.99785e-239
-4.53883e-235
6.22228e-242
-3.90346e-226
-1.36399e-232
-1.38809e-228
-4.53883e-235
-1.38809e-228
-4.53883e-235
3.88375e-226
1.35754e-232
-4.53883e-235
6.22228e-242
1.35754e-232
-1.98901e-239
1.35754e-232
-1.98901e-239
2.50931e-232
-3.67562e-239
3.88375e-226
1.35754e-232
7.18081e-226
2.50931e-232
6.22228e-242
2.09819e-248
-1.98901e-239
-7.16748e-246
2.09819e-248
-2.29654e-255
-7.16748e-246
8.38177e-253
-7.16748e-246
8.38177e-253
-1.32421e-245
1.54822e-252
-1.98901e-239
-7.16748e-246
-3.67562e-239
-1.32421e-245
-3.67562e-239
-1.32421e-245
-4.78201e-239
-1.7225e-245
-1.32421e-245
1.54822e-252
-1.7225e-245
2.01354e-252
-1.7225e-245
2.01354e-252
-9.34317e-246
1.09224e-252
-4.78201e-239
-1.7225e-245
-2.5937e-239
-9.34317e-246
7.18081e-226
2.50931e-232
9.3462e-226
3.2653e-232
2.50931e-232
-3.67562e-239
3.2653e-232
-4.78201e-239
3.2653e-232
-4.78201e-239
1.77095e-232
-2.5937e-239
9.3462e-226
3.2653e-232
5.06862e-226
1.77095e-232
-3.34959e-202
-6.52207e-209
7.16676e-200
1.49277e-206
-6.52207e-209
2.46415e-215
1.49277e-206
-6.03093e-213
1.49277e-206
-6.03093e-213
2.76275e-206
-1.11578e-212
7.16676e-200
1.49277e-206
1.3269e-199
2.76275e-206
2.46415e-215
6.66761e-222
-6.03093e-213
-1.74504e-219
6.66761e-222
-1.38809e-228
-1.74504e-219
3.88375e-226
-1.74504e-219
3.88375e-226
-3.22743e-219
7.18081e-226
-6.03093e-213
-1.74504e-219
-1.11578e-212
-3.22743e-219
-1.11578e-212
-3.22743e-219
-1.45296e-212
-4.20168e-219
-3.22743e-219
7.18081e-226
-4.20168e-219
9.3462e-226
-4.20168e-219
9.3462e-226
-2.27851e-219
5.06862e-226
-1.45296e-212
-4.20168e-219
-7.87861e-213
-2.27851e-219
1.3269e-199
2.76275e-206
1.72891e-199
3.5987e-206
2.76275e-206
-1.11578e-212
3.5987e-206
-1.45296e-212
3.5987e-206
-1.45296e-212
1.95126e-206
-7.87861e-213
1.72891e-199
3.5987e-206
9.37354e-200
1.95126e-206
-1.09003e-252
-3.10431e-259
-2.01042e-252
-5.72499e-259
-3.10431e-259
3.5567e-266
-5.72499e-259
6.55877e-266
-5.72499e-259
6.55877e-266
-4.40925e-259
5.05166e-266
-2.01042e-252
-5.72499e-259
-1.54829e-252
-4.40925e-259
3.5567e-266
5.02596e-273
6.55877e-266
9.26746e-273
5.02596e-273
-6.51409e-280
9.26746e-273
-1.20106e-279
9.26746e-273
-1.20106e-279
7.13825e-273
-9.25153e-280
6.55877e-266
9.26746e-273
5.05166e-266
7.13825e-273
5.05166e-266
7.13825e-273
2.74515e-266
3.87886e-273
7.13825e-273
-9.25153e-280
3.87886e-273
-5.02698e-280
3.87886e-273
-5.02698e-280
8.69425e-276
-1.05558e-282
2.74515e-266
3.87886e-273
6.5695e-269
8.69425e-276
-1.54829e-252
-4.40925e-259
-8.41444e-253
-2.39616e-259
-4.40925e-259
5.05166e-266
-2.39616e-259
2.74515e-266
-2.39616e-259
2.74515e-266
-6.12328e-262
6.5695e-269
-8.41444e-253
-2.39616e-259
-2.29654e-255
-6.12328e-262
-6.51409e-280
1.18033e-295
-1.20106e-279
1.91327e-295
1.18033e-295
0
1.91327e-295
0
1.91327e-295
0
3.44104e-295
0
-1.20106e-279
1.91327e-295
-9.25153e-280
3.44104e-295
0
0
0
0
0
0
0
0
0
0
0
0
0
0
0
0
0
0
0
0
0
0
0
0
0
0
0
0
0
0
0
0
-9.25153e-280
3.44104e-295
-5.02698e-280
4.22634e-295
3.44104e-295
0
4.22634e-295
0
4.22634e-295
0
4.94976e-295
0
-5.02698e-280
4.22634e-295
-1.05558e-282
4.94976e-295
-1.05558e-282
4.94976e-295
5.01192e-280
4.26441e-295
4.94976e-295
0
4.26441e-295
0
4.26441e-295
0
3.65521e-295
0
5.01192e-280
4.26441e-295
9.25107e-280
3.65521e-295
0
0
0
0
0
0
0
0
0
0
0
0
0
0
0
0
0
0
0
0
0
0
0
0
0
0
0
0
0
0
0
0
9.25107e-280
3.65521e-295
1.20248e-279
1.97991e-295
3.65521e-295
0
1.97991e-295
0
1.97991e-295
0
1.3707e-295
0
1.20248e-279
1.97991e-295
6.5241e-280
1.3707e-295
-2.29654e-255
-6.12328e-262
8.38177e-253
2.38745e-259
-6.12328e-262
6.5695e-269
2.38745e-259
-2.73579e-266
2.38745e-259
-2.73579e-266
4.40905e-259
-5.05142e-266
8.38177e-253
2.38745e-259
1.54822e-252
4.40905e-259
6.5695e-269
8.69425e-276
-2.73579e-266
-3.86646e-273
8.69425e-276
-1.05558e-282
-3.86646e-273
5.01192e-280
-3.86646e-273
5.01192e-280
-7.1379e-273
9.25107e-280
-2.73579e-266
-3.86646e-273
-5.05142e-266
-7.1379e-273
-5.05142e-266
-7.1379e-273