<VTKFile type="UnstructuredGrid" version="0.1" byte_order="LittleEndian">
<UnstructuredGrid>
<Piece NumberOfPoints="2048" NumberOfCells="512">
<Points>
<DataArray type="Float64" NumberOfComponents="3" format="ascii">
0 0 0
0.125 0 0
0 0.125 0
0.125 0.125 0
0.125 0 0
0.25 0 0
0.125 0.125 0
0.25 0.125 0
0.125 0.125 0
0.25 0.125 0
0.125 0.25 0
0.25 0.25 0
0 0.125 0
0.125 0.125 0
0 0.25 0
0.125 0.25 0
0.25 0 0
0.375 0 0
0.25 0.125 0
0.375 0.125 0
0.375 0 0
0.5 0 0
0.375 0.125 0
0.5 0.125 0
0.375 0.125 0
0.5 0.125 0
0.375 0.25 0
0.5 0.25 0
0.25 0.125 0
0.375 0.125 0
0.25 0.25 0
0.375 0.25 0
0.25 0.25 0
0.375 0.25 0
0.25 0.375 0
0.375 0.375 0
0.375 0.25 0
0.5 0.25 0
0.375 0.375 0
0.5 0.375 0
0.375 0.375 0
0.5 0.375 0
0.375 0.5 0
0.5 0.5 0
0.25 0.375 0
0.375 0.375 0
0.25 0.5 0
0.375 0.5 0
0 0.25 0
0.125 0.25 0
0 0.375 0
0.125 0.375 0
0.125 0.25 0
0.25 0.25 0
0.125 0.375 0
0.25 0.375 0
0.125 0.375 0
0.25 0.375 0
0.125 0.5 0
0.25 0.5 0
0 0.375 0
0.125 0.375 0
0 0.5 0
0.125 0.5 0
0.5 0 0
0.625 0 0
0.5 0.125 0
0.625 0.125 0
0.625 0 0
0.75 0 0
0.625 0.125 0
0.75 0.125 0
0.625 0.125 0
0.75 0.125 0
0.625 0.25 0
0.75 0.25 0
0.5 0.125 0
0.625 0.125 0
0.5 0.25 0
0.625 0.25 0
0.75 0 0
0.875 0 0
0.75 0.125 0
0.875 0.125 0
0.875 0 0
1 0 0
0.875 0.125 0
1 0.125 0
0.875 0.125 0
1 0.125 0
0.875 0.25 0
1 0.25 0
0.75 0.125 0
0.875 0.125 0
0.75 0.25 0
0.875 0.25 0
0.75 0.25 0
0.875 0.25 0
0.75 0.375 0
0.875 0.375 0
0.875 0.25 0
1 0.25 0
0.875 0.375 0
1 0.375 0
0.875 0.375 0
1 0.375 0
0.875 0.5 0
1 0.5 0
0.75 0.375 0
0.875 0.375 0
0.75 0.5 0
0.875 0.5 0
0.5 0.25 0
0.625 0.25 0
0.5 0.375 0
0.625 0.375 0
0.625 0.25 0
0.75 0.25 0
0.625 0.375 0
0.75 0.375 0
0.625 0.375 0
0.75 0.375 0
0.625 0.5 0
0.75 0.5 0
0.5 0.375 0
0.625 0.375 0
0.5 0.5 0
0.625 0.5 0
0.5 0.5 0
0.625 0.5 0
0.5 0.625 0
0.625 0.625 0
0.625 0.5 0
0.75 0.5 0
0.625 0.625 0
0.75 0.625 0
0.625 0.625 0
0.75 0.625 0
0.625 0.75 0
0.75 0.75 0
0.5 0.625 0
0.625 0.625 0
0.5 0.75 0
0.625 0.75 0
0.75 0.5 0
0.875 0.5 0
0.75 0.625 0
0.875 0.625 0
0.875 0.5 0
1 0.5 0
0.875 0.625 0
1 0.625 0
0.875 0.625 0
1 0.625 0
0.875 0.75 0
1 0.75 0
0.75 0.625 0
0.875 0.625 0
0.75 0.75 0
0.875 0.75 0
0.75 0.75 0
0.875 0.75 0
0.75 0.875 0
0.875 0.875 0
0.875 0.75 0
1 0.75 0
0.875 0.875 0
1 0.875 0
0.875 0.875 0
1 0.875 0
0.875 1 0
1 1 0
0.75 0.875 0
0.875 0.875 0
0.75 1 0
0.875 1 0
0.5 0.75 0
0.625 0.75 0
0.5 0.875 0
0.625 0.875 0
0.625 0.75 0
0.75 0.75 0
0.625 0.875 0
0.75 0.875 0
0.625 0.875 0
0.75 0.875 0
0.625 1 0
0.75 1 0
0.5 0.875 0
0.625 0.875 0
0.5 1 0
0.625 1 0
0 0.5 0
0.125 0.5 0
0 0.625 0
0.125 0.625 0
0.125 0.5 0
0.25 0.5 0
0.125 0.625 0
0.25 0.625 0
0.125 0.625 0
0.25 0.625 0
0.125 0.75 0
0.25 0.75 0
0 0.625 0
0.125 0.625 0
0 0.75 0
0.125 0.75 0
0.25 0.5 0
0.375 0.5 0
0.25 0.625 0
0.375 0.625 0
0.375 0.5 0
0.5 0.5 0
0.375 0.625 0
0.5 0.625 0
0.375 0.625 0
0.5 0.625 0
0.375 0.75 0
0.5 0.75 0
0.25 0.625 0
0.375 0.625 0
0.25 0.75 0
0.375 0.75 0
0.25 0.75 0
0.375 0.75 0
0.25 0.875 0
0.375 0.875 0
0.375 0.75 0
0.5 0.75 0
0.375 0.875 0
0.5 0.875 0
0.375 0.875 0
0.5 0.875 0
0.375 1 0
0.5 1 0
0.25 0.875 0
0.375 0.875 0
0.25 1 0
0.375 1 0
0 0.75 0
0.125 0.75 0
0 0.875 0
0.125 0.875 0
0.125 0.75 0
0.25 0.75 0
0.125 0.875 0
0.25 0.875 0
0.125 0.875 0
0.25 0.875 0
0.125 1 0
0.25 1 0
0 0.875 0
0.125 0.875 0
0 1 0
0.125 1 0
1 0 0
1.125 0 0
1 0.125 0
1.125 0.125 0
1.125 0 0
1.25 0 0
1.125 0.125 0
1.25 0.125 0
1.125 0.125 0
1.25 0.125 0
1.125 0.25 0
1.25 0.25 0
1 0.125 0
1.125 0.125 0
1 0.25 0
1.125 0.25 0
1.25 0 0
1.375 0 0
1.25 0.125 0
1.375 0.125 0
1.375 0 0
1.5 0 0
1.375 0.125 0
1.5 0.125 0
1.375 0.125 0
1.5 0.125 0
1.375 0.25 0
1.5 0.25 0
1.25 0.125 0
1.375 0.125 0
1.25 0.25 0
1.375 0.25 0
1.25 0.25 0
1.375 0.25 0
1.25 0.375 0
1.375 0.375 0
1.375 0.25 0
1.5 0.25 0
1.375 0.375 0
1.5 0.375 0
1.375 0.375 0
1.5 0.375 0
1.375 0.5 0
1.5 0.5 0
1.25 0.375 0
1.375 0.375 0
1.25 0.5 0
1.375 0.5 0
1 0.25 0
1.125 0.25 0
1 0.375 0
1.125 0.375 0
1.125 0.25 0
1.25 0.25 0
1.125 0.375 0
1.25 0.375 0
1.125 0.375 0
1.25 0.375 0
1.125 0.5 0
1.25 0.5 0
1 0.375 0
1.125 0.375 0
1 0.5 0
1.125 0.5 0
1.5 0 0
1.625 0 0
1.5 0.125 0
1.625 0.125 0
1.625 0 0
1.75 0 0
1.625 0.125 0
1.75 0.125 0
1.625 0.125 0
1.75 0.125 0
1.625 0.25 0
1.75 0.25 0
1.5 0.125 0
1.625 0.125 0
1.5 0.25 0
1.625 0.25 0
1.75 0 0
1.875 0 0
1.75 0.125 0
1.875 0.125 0
1.875 0 0
2 0 0
1.875 0.125 0
2 0.125 0
1.875 0.125 0
2 0.125 0
1.875 0.25 0
2 0.25 0
1.75 0.125 0
1.875 0.125 0
1.75 0.25 0
1.875 0.25 0
1.75 0.25 0
1.875 0.25 0
1.75 0.375 0
1.875 0.375 0
1.875 0.25 0
2 0.25 0
1.875 0.375 0
2 0.375 0
1.875 0.375 0
2 0.375 0
1.875 0.5 0
2 0.5 0
1.75 0.375 0
1.875 0.375 0
1.75 0.5 0
1.875 0.5 0
1.5 0.25 0
1.625 0.25 0
1.5 0.375 0
1.625 0.375 0
1.625 0.25 0
1.75 0.25 0
1.625 0.375 0
1.75 0.375 0
1.625 0.375 0
1.75 0.375 0
1.625 0.5 0
1.75 0.5 0
1.5 0.375 0
1.625 0.375 0
1.5 0.5 0
1.625 0.5 0
1.5 0.5 0
1.625 0.5 0
1.5 0.625 0
1.625 0.625 0
1.625 0.5 0
1.75 0.5 0
1.625 0.625 0
1.75 0.625 0
1.625 0.625 0
1.75 0.625 0
1.625 0.75 0
1.75 0.75 0
1.5 0.625 0
1.625 0.625 0
1.5 0.75 0
1.625 0.75 0
1.75 0.5 0
1.875 0.5 0
1.75 0.625 0
1.875 0.625 0
1.875 0.5 0
2 0.5 0
1.875 0.625 0
2 0.625 0
1.875 0.625 0
2 0.625 0
1.875 0.75 0
2 0.75 0
1.75 0.625 0
1.875 0.625 0
1.75 0.75 0
1.875 0.75 0
1.75 0.75 0
1.875 0.75 0
1.75 0.875 0
1.875 0.875 0
1.875 0.75 0
2 0.75 0
1.875 0.875 0
2 0.875 0
1.875 0.875 0
2 0.875 0
1.875 1 0
2 1 0
1.75 0.875 0
1.875 0.875 0
1.75 1 0
1.875 1 0
1.5 0.75 0
1.625 0.75 0
1.5 0.875 0
1.625 0.875 0
1.625 0.75 0
1.75 0.75 0
1.625 0.875 0
1.75 0.875 0
1.625 0.875 0
1.75 0.875 0
1.625 1 0
1.75 1 0
1.5 0.875 0
1.625 0.875 0
1.5 1 0
1.625 1 0
1 0.5 0
1.125 0.5 0
1 0.625 0
1.125 0.625 0
1.125 0.5 0
1.25 0.5 0
1.125 0.625 0
1.25 0.625 0
1.125 0.625 0
1.25 0.625 0
1.125 0.75 0
1.25 0.75 0
1 0.625 0
1.125 0.625 0
1 0.75 0
1.125 0.75 0
1.25 0.5 0
1.375 0.5 0
1.25 0.625 0
1.375 0.625 0
1.375 0.5 0
1.5 0.5 0
1.375 0.625 0
1.5 0.625 0
1.375 0.625 0
1.5 0.625 0
1.375 0.75 0
1.5 0.75 0
1.25 0.625 0
1.375 0.625 0
1.25 0.75 0
1.375 0.75 0
1.25 0.75 0
1.375 0.75 0
1.25 0.875 0
1.375 0.875 0
1.375 0.75 0
1.5 0.75 0
1.375 0.875 0
1.5 0.875 0
1.375 0.875 0
1.5 0.875 0
1.375 1 0
1.5 1 0
1.25 0.875 0
1.375 0.875 0
1.25 1 0
1.375 1 0
1 0.75 0
1.125 0.75 0
1 0.875 0
1.125 0.875 0
1.125 0.75 0
1.25 0.75 0
1.125 0.875 0
1.25 0.875 0
1.125 0.875 0
1.25 0.875 0
1.125 1 0
1.25 1 0
1 0.875 0
1.125 0.875 0
1 1 0
1.125 1 0
2 0 0
2.125 0 0
2 0.125 0
2.125 0.125 0
2.125 0 0
2.25 0 0
2.125 0.125 0
2.25 0.125 0
2.125 0.125 0
2.25 0.125 0
2.125 0.25 0
2.25 0.25 0
2 0.125 0
2.125 0.125 0
2 0.25 0
2.125 0.25 0
2.25 0 0
2.375 0 0
2.25 0.125 0
2.375 0.125 0
2.375 0 0
2.5 0 0
2.375 0.125 0
2.5 0.125 0
2.375 0.125 0
2.5 0.125 0
2.375 0.25 0
2.5 0.25 0
2.25 0.125 0
2.375 0.125 0
2.25 0.25 0
2.375 0.25 0
2.25 0.25 0
2.375 0.25 0
2.25 0.375 0
2.375 0.375 0
2.375 0.25 0
2.5 0.25 0
2.375 0.375 0
2.5 0.375 0
2.375 0.375 0
2.5 0.375 0
2.375 0.5 0
2.5 0.5 0
2.25 0.375 0
2.375 0.375 0
2.25 0.5 0
2.375 0.5 0
2 0.25 0
2.125 0.25 0
2 0.375 0
2.125 0.375 0
2.125 0.25 0
2.25 0.25 0
2.125 0.375 0
2.25 0.375 0
2.125 0.375 0
2.25 0.375 0
2.125 0.5 0
2.25 0.5 0
2 0.375 0
2.125 0.375 0
2 0.5 0
2.125 0.5 0
2.5 0 0
2.625 0 0
2.5 0.125 0
2.625 0.125 0
2.625 0 0
2.75 0 0
2.625 0.125 0
2.75 0.125 0
2.625 0.125 0
2.75 0.125 0
2.625 0.25 0
2.75 0.25 0
2.5 0.125 0
2.625 0.125 0
2.5 0.25 0
2.625 0.25 0
2.75 0 0
2.875 0 0
2.75 0.125 0
2.875 0.125 0
2.875 0 0
3 0 0
2.875 0.125 0
3 0.125 0
2.875 0.125 0
3 0.125 0
2.875 0.25 0
3 0.25 0
2.75 0.125 0
2.875 0.125 0
2.75 0.25 0
2.875 0.25 0
2.75 0.25 0
2.875 0.25 0
2.75 0.375 0
2.875 0.375 0
2.875 0.25 0
3 0.25 0
2.875 0.375 0
3 0.375 0
2.875 0.375 0
3 0.375 0
2.875 0.5 0
3 0.5 0
2.75 0.375 0
2.875 0.375 0
2.75 0.5 0
2.875 0.5 0
2.5 0.25 0
2.625 0.25 0
2.5 0.375 0
2.625 0.375 0
2.625 0.25 0
2.75 0.25 0
2.625 0.375 0
2.75 0.375 0
2.625 0.375 0
2.75 0.375 0
2.625 0.5 0
2.75 0.5 0
2.5 0.375 0
2.625 0.375 0
2.5 0.5 0
2.625 0.5 0
2.5 0.5 0
2.625 0.5 0
2.5 0.625 0
2.625 0.625 0
2.625 0.5 0
2.75 0.5 0
2.625 0.625 0
2.75 0.625 0
2.625 0.625 0
2.75 0.625 0
2.625 0.75 0
2.75 0.75 0
2.5 0.625 0
2.625 0.625 0
2.5 0.75 0
2.625 0.75 0
2.75 0.5 0
2.875 0.5 0
2.75 0.625 0
2.875 0.625 0
2.875 0.5 0
3 0.5 0
2.875 0.625 0
3 0.625 0
2.875 0.625 0
3 0.625 0
2.875 0.75 0
3 0.75 0
2.75 0.625 0
2.875 0.625 0
2.75 0.75 0
2.875 0.75 0
2.75 0.75 0
2.875 0.75 0
2.75 0.875 0
2.875 0.875 0
2.875 0.75 0
3 0.75 0
2.875 0.875 0
3 0.875 0
2.875 0.875 0
3 0.875 0
2.875 1 0
3 1 0
2.75 0.875 0
2.875 0.875 0
2.75 1 0
2.875 1 0
2.5 0.75 0
2.625 0.75 0
2.5 0.875 0
2.625 0.875 0
2.625 0.75 0
2.75 0.75 0
2.625 0.875 0
2.75 0.875 0
2.625 0.875 0
2.75 0.875 0
2.625 1 0
2.75 1 0
2.5 0.875 0
2.625 0.875 0
2.5 1 0
2.625 1 0
2 0.5 0
2.125 0.5 0
2 0.625 0
2.125 0.625 0
2.125 0.5 0
2.25 0.5 0
2.125 0.625 0
2.25 0.625 0
2.125 0.625 0
2.25 0.625 0
2.125 0.75 0
2.25 0.75 0
2 0.625 0
2.125 0.625 0
2 0.75 0
2.125 0.75 0
2.25 0.5 0
2.375 0.5 0
2.25 0.625 0
2.375 0.625 0
2.375 0.5 0
2.5 0.5 0
2.375 0.625 0
2.5 0.625 0
2.375 0.625 0
2.5 0.625 0
2.375 0.75 0
2.5 0.75 0
2.25 0.625 0
2.375 0.625 0
2.25 0.75 0
2.375 0.75 0
2.25 0.75 0
2.375 0.75 0
2.25 0.875 0
2.375 0.875 0
2.375 0.75 0
2.5 0.75 0
2.375 0.875 0
2.5 0.875 0
2.375 0.875 0
2.5 0.875 0
2.375 1 0
2.5 1 0
2.25 0.875 0
2.375 0.875 0
2.25 1 0
2.375 1 0
2 0.75 0
2.125 0.75 0
2 0.875 0
2.125 0.875 0
2.125 0.75 0
2.25 0.75 0
2.125 0.875 0
2.25 0.875 0
2.125 0.875 0
2.25 0.875 0
2.125 1 0
2.25 1 0
2 0.875 0
2.125 0.875 0
2 1 0
2.125 1 0
3 0 0
3.125 0 0
3 0.125 0
3.125 0.125 0
3.125 0 0
3.25 0 0
3.125 0.125 0
3.25 0.125 0
3.125 0.125 0
3.25 0.125 0
3.125 0.25 0
3.25 0.25 0
3 0.125 0
3.125 0.125 0
3 0.25 0
3.125 0.25 0
3.25 0 0
3.375 0 0
3.25 0.125 0
3.375 0.125 0
3.375 0 0
3.5 0 0
3.375 0.125 0
3.5 0.125 0
3.375 0.125 0
3.5 0.125 0
3.375 0.25 0
3.5 0.25 0
3.25 0.125 0
3.375 0.125 0
3.25 0.25 0
3.375 0.25 0
3.25 0.25 0
3.375 0.25 0
3.25 0.375 0
3.375 0.375 0
3.375 0.25 0
3.5 0.25 0
3.375 0.375 0
3.5 0.375 0
3.375 0.375 0
3.5 0.375 0
3.375 0.5 0
3.5 0.5 0
3.25 0.375 0
3.375 0.375 0
3.25 0.5 0
[...]
<CellData Scalars="attribute">
<DataArray type="Int32" Name="attribute" format="ascii">
1
1
1
1
1
1
1
1
1
1
1
1
1
1
1
1
1
1
1
1
1
1
1
1
1
1
1
1
1
1
1
1
1
1
1
1
1
1
1
1
1
1
1
1
1
1
1
1
1
1
1
1
1
1
1
1
1
1
1
1
1
1
1
1
1
1
1
1
1
1
1
1
1
1
1
1
1
1
1
1
1
1
1
1
1
1
1
1
1
1
1
1
1
1
1
1
1
1
1
1
1
1
1
1
1
1
1
1
1
1
1
1
1
1
1
1
1
1
1
1
1
1
1
1
1
1
1
1
1
1
1
1
1
1
1
1
1
1
1
1
1
1
1
1
1
1
1
1
1
1
1
1
1
1
1
1
1
1
1
1
1
1
1
1
1
1
1
1
1
1
1
1
1
1
1
1
1
1
1
1
1
1
1
1
1
1
1
1
1
1
1
1
1
1
1
1
1
1
1
1
1
1
1
1
1
1
1
1
1
1
1
1
1
1
1
1
1
1
1
1
1
1
1
1
1
1
1
1
1
1
1
1
1
1
1
1
1
1
1
1
1
1
1
1
1
1
1
1
1
1
1
1
1
1
1
1
2
2
2
2
2
2
2
2
2
2
2
2
2
2
2
2
2
2
2
2
2
2
2
2
2
2
2
2
2
2
2
2
2
2
2
2
2
2
2
2
2
2
2
2
2
2
2
2
2
2
2
2
2
2
2
2
2
2
2
2
2
2
2
2
2
2
2
2
2
2
2
2
2
2
2
2
2
2
2
2
2
2
2
2
2
2
2
2
2
2
2
2
2
2
2
2
2
2
2
2
2
2
2
2
2
2
2
2
2
2
2
2
2
2
2
2
2
2
2
2
2
2
2
2
2
2
2
2
2
2
2
2
2
2
2
2
2
2
2
2
2
2
2
2
2
2
2
2
2
2
2
2
2
2
2
2
2
2
2
2
2
2
2
2
2
2
2
2
2
2
2
2
2
2
2
2
2
2
2
2
2
2
2
2
2
2
2
2
2
2
2
2
2
2
2
2
2
2
2
2
2
2
2
2
2
2
2
2
2
2
2
2
2
2
2
2
2
2
2
2
2
2
2
2
2
2
2
2
2
2
2
2
2
2
2
2
2
2
2
2
2
2
2
2
2
2
2
2
2
2
2
2
2
2
2
2
</DataArray>
</CellData>
<PointData >
<DataArray type="Float64" Name="Pressure" NumberOfComponents="1" format="ascii" >
-0.000925676
-1.97069e-06
-0.0015148
-3.26228e-06
-1.97069e-06
1.63926e-10
-3.26228e-06
2.83891e-10
-3.26228e-06
2.83891e-10
-2.19013e-06
1.92788e-10
-0.0015148
-3.26228e-06
-0.00100989
-2.19013e-06
1.63926e-10
-8.56931e-15
2.83891e-10
-1.53015e-14
-8.56931e-15
4.53098e-19
-1.53015e-14
8.38848e-19
-1.53015e-14
8.38848e-19
-1.06549e-14
5.99957e-19
2.83891e-10
-1.53015e-14
1.92788e-10
-1.06549e-14
1.92788e-10
-1.06549e-14
9.87987e-11
-5.44461e-15
-1.06549e-14
5.99957e-19
-5.44461e-15
3.06898e-19
-5.44461e-15
3.06898e-19
-1.80334e-16
9.73929e-21
9.87987e-11
-5.44461e-15
3.48624e-12
-1.80334e-16
-0.00100989
-2.19013e-06
-0.000504966
-1.11214e-06
-2.19013e-06
1.92788e-10
-1.11214e-06
9.87987e-11
-1.11214e-06
9.87987e-11
-2.4635e-08
3.48624e-12
-0.000504966
-1.11214e-06
-3.03083e-08
-2.4635e-08
4.53098e-19
-1.24011e-23
8.38848e-19
-2.3797e-23
-1.24011e-23
5.89999e-28
-2.3797e-23
1.13832e-27
-2.3797e-23
1.13832e-27
-1.76319e-23
8.5542e-28
8.38848e-19
-2.3797e-23
5.99957e-19
-1.76319e-23
5.89999e-28
-6.82152e-33
1.13832e-27
-1.45203e-32
-6.82152e-33
5.0062e-37
-1.45203e-32
9.80233e-37
-1.45203e-32
9.80233e-37
-1.17458e-32
7.59103e-37
1.13832e-27
-1.45203e-32
8.5542e-28
-1.17458e-32
8.5542e-28
-1.17458e-32
4.44732e-28
-6.19379e-33
-1.17458e-32
7.59103e-37
-6.19379e-33
4.03136e-37
-6.19379e-33
4.03136e-37
-1.78672e-34
1.02649e-38
4.44732e-28
-6.19379e-33
1.27584e-29
-1.78672e-34
5.99957e-19
-1.76319e-23
3.06898e-19
-9.07488e-24
-1.76319e-23
8.5542e-28
-9.07488e-24
4.44732e-28
-9.07488e-24
4.44732e-28
-2.77284e-25
1.27584e-29
3.06898e-19
-9.07488e-24
9.73929e-21
-2.77284e-25
9.73929e-21
-2.77284e-25
-2.91566e-19
8.6427e-24
-2.77284e-25
1.27584e-29
8.6427e-24
-4.25268e-28
8.6427e-24
-4.25268e-28
1.75687e-23
-8.53158e-28
-2.91566e-19
8.6427e-24
-5.97136e-19
1.75687e-23
1.27584e-29
-1.78672e-34
-4.25268e-28
5.92309e-33
-1.78672e-34
1.02649e-38
5.92309e-33
-3.87918e-37
5.92309e-33
-3.87918e-37
1.17141e-32
-7.57874e-37
-4.25268e-28
5.92309e-33
-8.53158e-28
1.17141e-32
-8.53158e-28
1.17141e-32
-1.15648e-27
1.47416e-32
1.17141e-32
-7.57874e-37
1.47416e-32
-9.93949e-37
1.47416e-32
-9.93949e-37
6.97051e-33
-5.10311e-37
-1.15648e-27
1.47416e-32
-6.03281e-28
6.97051e-33
-5.97136e-19
1.75687e-23
-8.53807e-19
2.42023e-23
1.75687e-23
-8.53158e-28
2.42023e-23
-1.15648e-27
2.42023e-23
-1.15648e-27
1.27022e-23
-6.03281e-28
-8.53807e-19
2.42023e-23
-4.65016e-19
1.27022e-23
-3.03083e-08
-2.4635e-08
0.000504917
1.07238e-06
-2.4635e-08
3.48624e-12
1.07238e-06
-9.31847e-11
1.07238e-06
-9.31847e-11
2.17891e-06
-1.91245e-10
0.000504917
1.07238e-06
0.00100988
2.17891e-06
3.48624e-12
-1.80334e-16
-9.31847e-11
5.15713e-15
-1.80334e-16
9.73929e-21
5.15713e-15
-2.91566e-19
5.15713e-15
-2.91566e-19
1.05881e-14
-5.97136e-19
-9.31847e-11
5.15713e-15
-1.91245e-10
1.05881e-14
-1.91245e-10
1.05881e-14
-2.8915e-10
1.55865e-14
1.05881e-14
-5.97136e-19
1.55865e-14
-8.53807e-19
1.55865e-14
-8.53807e-19
8.81183e-15
-4.65016e-19
-2.8915e-10
1.55865e-14
-1.69311e-10
8.81183e-15
0.00100988
2.17891e-06
0.00151485
3.299e-06
2.17891e-06
-1.91245e-10
3.299e-06
-2.8915e-10
3.299e-06
-2.8915e-10
2.00958e-06
-1.69311e-10
0.00151485
3.299e-06
0.000925723
2.00958e-06
5.0062e-37
1.01432e-42
9.80233e-37
4.0884e-43
1.01432e-42
3.34715e-46
4.0884e-43
6.49496e-46
4.0884e-43
6.49496e-46
-6.02351e-43
5.06875e-46
9.80233e-37
4.0884e-43
7.59103e-37
-6.02351e-43
3.34715e-46
4.09656e-51
6.49496e-46
6.93572e-51
4.09656e-51
1.88554e-55
6.93572e-51
3.59289e-55
6.93572e-51
3.59289e-55
4.78909e-51
2.78866e-55
6.49496e-46
6.93572e-51
5.06875e-46
4.78909e-51
5.06875e-46
4.78909e-51
2.73179e-46
2.49655e-51
4.78909e-51
2.78866e-55
2.49655e-51
1.51203e-55
2.49655e-51
1.51203e-55
4.2005e-53
2.8758e-57
2.73179e-46
2.49655e-51
6.05182e-48
4.2005e-53
7.59103e-37
-6.02351e-43
4.03136e-37
-4.14815e-43
-6.02351e-43
5.06875e-46
-4.14815e-43
2.73179e-46
-4.14815e-43
2.73179e-46
-2.40998e-44
6.05182e-48
4.03136e-37
-4.14815e-43
1.02649e-38
-2.40998e-44
1.88554e-55
3.24128e-60
3.59289e-55
5.81087e-60
3.24128e-60
8.79901e-65
5.81087e-60
1.65258e-64
5.81087e-60
1.65258e-64
4.26966e-60
1.27387e-64
3.59289e-55
5.81087e-60
2.78866e-55
4.26966e-60
8.79901e-65
1.59326e-69
1.65258e-64
2.90927e-69
1.59326e-69
3.31455e-74
2.90927e-69
6.17415e-74
2.90927e-69
6.17415e-74
2.18552e-69
4.74116e-74
1.65258e-64
2.90927e-69
1.27387e-64
2.18552e-69
1.27387e-64
2.18552e-69
6.91647e-65
1.17502e-69
2.18552e-69
4.74116e-74
1.17502e-69
2.57477e-74
1.17502e-69
2.57477e-74
1.69004e-71
3.60646e-76
6.91647e-65
1.17502e-69
1.12661e-66
1.69004e-71
2.78866e-55
4.26966e-60
1.51203e-55
2.27351e-60
4.26966e-60
1.27387e-64
2.27351e-60
6.91647e-65
2.27351e-60
6.91647e-65
3.65378e-62
1.12661e-66
1.51203e-55
2.27351e-60
2.8758e-57
3.65378e-62
2.8758e-57
3.65378e-62
-1.47064e-55
-2.22181e-60
3.65378e-62
1.12661e-66
-2.22181e-60
-6.75545e-65
-2.22181e-60
-6.75545e-65
-4.27105e-60
-1.27343e-64
-1.47064e-55
-2.22181e-60
-2.78691e-55
-4.27105e-60
1.12661e-66
1.69004e-71
-6.75545e-65
-1.15112e-69
1.69004e-71
3.60646e-76
-1.15112e-69
-2.52346e-74
-1.15112e-69
-2.52346e-74
-2.18586e-69
-4.74032e-74
-6.75545e-65
-1.15112e-69
-1.27343e-64
-2.18586e-69
-1.27343e-64
-2.18586e-69
-1.66779e-64
-2.93446e-69
-2.18586e-69
-4.74032e-74
-2.93446e-69
-6.22373e-74
-2.93446e-69
-6.22373e-74
-1.61121e-69
-3.34972e-74
-1.66779e-64
-2.93446e-69
-8.90673e-65
-1.61121e-69
-2.78691e-55
-4.27105e-60
-3.63083e-55
-5.8685e-60
-4.27105e-60
-1.27343e-64
-5.8685e-60
-1.66779e-64
-5.8685e-60
-1.66779e-64
-3.28286e-60
-8.90673e-65
-3.63083e-55
-5.8685e-60
-1.91232e-55
-3.28286e-60
1.02649e-38
-2.40998e-44
-3.87918e-37
3.77067e-43
-2.40998e-44
6.05182e-48
3.77067e-43
-2.64371e-46
3.77067e-43
-2.64371e-46
5.90151e-43
-5.06349e-46
-3.87918e-37
3.77067e-43
-7.57874e-37
5.90151e-43
6.05182e-48
4.2005e-53
-2.64371e-46
-2.43739e-51
4.2005e-53
2.8758e-57
-2.43739e-51
-1.47064e-55
-2.43739e-51
-1.47064e-55
-4.79349e-51
-2.78691e-55
-2.64371e-46
-2.43739e-51
-5.06349e-46
-4.79349e-51
-5.06349e-46
-4.79349e-51
-6.57393e-46
-7.01398e-51
-4.79349e-51
-2.78691e-55
-7.01398e-51
-3.63083e-55
-7.01398e-51
-3.63083e-55
-4.15531e-51
-1.91232e-55
-6.57393e-46
-7.01398e-51
-3.40263e-46
-4.15531e-51
-7.57874e-37
5.90151e-43
-9.93949e-37
-4.11436e-43
5.90151e-43
-5.06349e-46
-4.11436e-43
-6.57393e-46
-4.11436e-43
-6.57393e-46
-1.02454e-42
-3.40263e-46
-9.93949e-37
-4.11436e-43
-5.10311e-37
-1.02454e-42
3.31455e-74
5.70447e-79
6.17415e-74
1.04929e-78
5.70447e-79
1.00138e-83
1.04929e-78
1.8577e-83
1.04929e-78
1.8577e-83
7.96602e-79
1.42485e-83
6.17415e-74
1.04929e-78
4.74116e-74
7.96602e-79
1.00138e-83
1.58281e-88
1.8577e-83
2.92017e-88
1.58281e-88
2.44426e-93
2.92017e-88
4.52555e-93
2.92017e-88
4.52555e-93
2.22926e-88
3.47158e-93
1.8577e-83
2.92017e-88
1.42485e-83
2.22926e-88
1.42485e-83
2.22926e-88
7.73964e-84
1.20831e-88
2.22926e-88
3.47158e-93
1.20831e-88
1.88632e-93
1.20831e-88
1.88632e-93
1.34369e-90
1.98179e-95
7.73964e-84
1.20831e-88
9.37008e-86
1.34369e-90
4.74116e-74
7.96602e-79
2.57477e-74
4.3053e-79
7.96602e-79
1.42485e-83
4.3053e-79
7.73964e-84
4.3053e-79
7.73964e-84
5.46004e-81
9.37008e-86
2.57477e-74
4.3053e-79
3.60646e-76
5.46004e-81
2.44426e-93
3.51955e-98
4.52555e-93
6.50065e-98
3.51955e-98
4.88118e-103
6.50065e-98
9.02837e-103
6.50065e-98
9.02837e-103
4.97806e-98
6.93007e-103
4.52555e-93
6.50065e-98
3.47158e-93
4.97806e-98
4.88118e-103
6.41094e-108
9.02837e-103
1.18448e-107
6.41094e-108
8.0814e-113
1.18448e-107
1.49386e-112
1.18448e-107
1.49386e-112
9.08731e-108
1.14747e-112
9.02837e-103
1.18448e-107
6.93007e-103
9.08731e-108
6.93007e-103
9.08731e-108
3.76665e-103
4.93747e-108
9.08731e-108
1.14747e-112
4.93747e-108
6.23812e-113
4.93747e-108
6.23812e-113
4.19817e-110
4.97108e-115
3.76665e-103
4.93747e-108
3.44343e-105
4.19817e-110
3.47158e-93
4.97806e-98
1.88632e-93
2.70248e-98
4.97806e-98
6.93007e-103
2.70248e-98
3.76665e-103
2.70248e-98
3.76665e-103
2.62906e-100
3.44343e-105
1.88632e-93
2.70248e-98
1.98179e-95
2.62906e-100
1.98179e-95
2.62906e-100
-1.85824e-93
-2.66531e-98
2.62906e-100
3.44343e-105
-2.66531e-98
-3.7179e-103
-2.66531e-98
-3.7179e-103
-4.97812e-98
-6.92988e-103
-1.85824e-93
-2.66531e-98
-3.47143e-93
-4.97812e-98
3.44343e-105
4.19817e-110
-3.7179e-103
-4.87809e-108
4.19817e-110
4.97108e-115
-4.87809e-108
-6.16776e-113
-4.87809e-108
-6.16776e-113
-9.08729e-108
-1.14745e-112
-3.7179e-103
-4.87809e-108
-6.92988e-103
-9.08729e-108
-6.92988e-103
-9.08729e-108
-9.0766e-103
-1.19039e-107
-9.08729e-108
-1.14745e-112
-1.19039e-107
-1.50082e-112
-1.19039e-107
-1.50082e-112
-6.45284e-108
-8.13072e-113
-9.0766e-103
-1.19039e-107
-4.91535e-103
-6.45284e-108
-3.47143e-93
-4.97812e-98
-4.55325e-93
-6.53791e-98
-4.97812e-98
-6.92988e-103
-6.53791e-98
-9.0766e-103
-6.53791e-98
-9.0766e-103
-3.54593e-98
-4.91535e-103
-4.55325e-93
-6.53791e-98
-2.46389e-93
-3.54593e-98
3.60646e-76
5.46004e-81
-2.52346e-74
-4.22811e-79
5.46004e-81
9.37008e-86
-4.22811e-79
-7.60668e-84
-4.22811e-79
-7.60668e-84
-7.96664e-79
-1.42473e-83
-2.52346e-74
-4.22811e-79
-4.74032e-74
-7.96664e-79
9.37008e-86
1.34369e-90
-7.60668e-84
-1.18931e-88
1.34369e-90
1.98179e-95
-1.18931e-88
-1.85824e-93
-1.18931e-88
-1.85824e-93
-2.22934e-88
-3.47143e-93
-7.60668e-84
-1.18931e-88
-1.42473e-83
-2.22934e-88
-1.42473e-83
-2.22934e-88
-1.87073e-83
-2.93938e-88
-2.22934e-88
-3.47143e-93
-2.93938e-88
-4.55325e-93
-2.93938e-88
-4.55325e-93
-1.59641e-88
-2.46389e-93
-1.87073e-83
-2.93938e-88
-1.01061e-83
-1.59641e-88
-4.74032e-74
-7.96664e-79
-6.22373e-74
-1.05721e-78
-7.96664e-79
-1.42473e-83
-1.05721e-78
-1.87073e-83
-1.05721e-78
-1.87073e-83
-5.76066e-79
-1.01061e-83
-6.22373e-74
-1.05721e-78
-3.34972e-74
-5.76066e-79
8.0814e-113
9.72251e-118
1.49386e-112
1.79623e-117
9.72251e-118
1.12299e-122
1.79623e-117
2.07497e-122
1.79623e-117
2.07497e-122
1.37969e-117
1.59485e-122
1.49386e-112
1.79623e-117
1.14747e-112
1.37969e-117
1.12299e-122
1.24355e-127
2.07497e-122
2.29701e-127
1.24355e-127
1.32415e-132
2.29701e-127
2.44579e-132
2.29701e-127
2.44579e-132
1.76573e-127
1.88084e-132
2.07497e-122
2.29701e-127
1.59485e-122
1.76573e-127
1.59485e-122
1.76573e-127
8.67123e-123
9.59977e-128
1.76573e-127
1.88084e-132
9.59977e-128
1.02265e-132
9.59977e-128
1.02265e-132
6.23309e-130
6.21202e-135
8.67123e-123
9.59977e-128
6.03045e-125
6.23309e-130
1.14747e-112
1.37969e-117
6.23812e-113
7.49958e-118
1.37969e-117
1.59485e-122
7.49958e-118
8.67123e-123
7.49958e-118
8.67123e-123
5.57202e-120
6.03045e-125
6.23812e-113
7.49958e-118
4.97108e-115
5.57202e-120
1.32415e-132
1.35593e-137
2.44579e-132
2.50396e-137
1.35593e-137
1.3376e-142
2.50396e-137
2.46988e-142
2.50396e-137
2.46988e-142
1.92587e-137
1.90014e-142
2.44579e-132
2.50396e-137
1.88084e-132
1.92587e-137
1.3376e-142
1.27194e-147
2.46988e-142
2.34825e-147
1.27194e-147
1.1673e-152
2.34825e-147
2.15482e-152
2.34825e-147
2.15482e-152
1.80684e-147
1.65829e-152
2.46988e-142
2.34825e-147
1.90014e-142
1.80684e-147
1.90014e-142
1.80684e-147
1.03312e-142
9.82352e-148
1.80684e-147
1.65829e-152
9.82352e-148
9.01573e-153
9.82352e-148
9.01573e-153
4.87568e-150
4.18575e-155
1.03312e-142
9.82352e-148
5.48494e-145
4.87568e-150
1.88084e-132
1.92587e-137
1.02265e-132
1.0471e-137
1.92587e-137
1.90014e-142
1.0471e-137
1.03312e-142
1.0471e-137
1.03312e-142
5.94313e-140
5.48494e-145
1.02265e-132
1.0471e-137
6.21202e-135
5.94313e-140
6.21202e-135
5.94313e-140
-1.01386e-132
-1.03868e-137
5.94313e-140
5.48494e-145
-1.03868e-137
-1.02535e-142
-1.03868e-137
-1.02535e-142
-1.92583e-137
-1.90009e-142
-1.01386e-132
-1.03868e-137
-1.88079e-132
-1.92583e-137
5.48494e-145
4.87568e-150
-1.02535e-142
-9.75442e-148
4.87568e-150
4.18575e-155
-9.75442e-148
-8.95639e-153
-9.75442e-148
-8.95639e-153
-1.80678e-147
-1.65824e-152
-1.02535e-142
-9.75442e-148
-1.90009e-142
-1.80678e-147
-1.90009e-142
-1.80678e-147
-2.47751e-142
-2.35503e-147
-1.80678e-147
-1.65824e-152
-2.35503e-147
-2.16063e-152
-2.35503e-147
-2.16063e-152
-1.27674e-147
-1.17142e-152
-2.47751e-142
-2.35503e-147
-1.34301e-142
-1.27674e-147
-1.88079e-132
-1.92583e-137
-2.45446e-132
-2.51225e-137
-1.92583e-137
-1.90009e-142
-2.51225e-137
-2.47751e-142
-2.51225e-137
-2.47751e-142
-1.3618e-137
-1.34301e-142
-2.45446e-132
-2.51225e-137
-1.33029e-132
-1.3618e-137
4.97108e-115
5.57202e-120
-6.16776e-113
-7.42074e-118
5.57202e-120
6.03045e-125
-7.42074e-118
-8.58586e-123
-7.42074e-118
-8.58586e-123
-1.37968e-117
-1.59481e-122
-6.16776e-113
-7.42074e-118
-1.14745e-112
-1.37968e-117
6.03045e-125
6.23309e-130
-8.58586e-123
-9.51154e-128
6.23309e-130
6.21202e-135
-9.51154e-128
-1.01386e-132
-9.51154e-128
-1.01386e-132
-1.7657e-127
-1.88079e-132
-8.58586e-123
-9.51154e-128
-1.59481e-122
-1.7657e-127
-1.59481e-122
-1.7657e-127
-2.0834e-122
-2.30574e-127
-1.7657e-127
-1.88079e-132
-2.30574e-127
-2.45446e-132
-2.30574e-127
-2.45446e-132
-1.24973e-127
-1.33029e-132
-2.0834e-122
-2.30574e-127
-1.12896e-122
-1.24973e-127
-1.14745e-112
-1.37968e-117
-1.50082e-112
-1.80406e-117
-1.37968e-117
-1.59481e-122
-1.80406e-117
-2.0834e-122
-1.80406e-117
-2.0834e-122
-9.7779e-118
-1.12896e-122
-1.50082e-112
-1.80406e-117
-8.13072e-113
-9.7779e-118
1.1673e-152
1.03465e-157
2.15482e-152
1.90968e-157
1.03465e-157
8.86543e-163
1.90968e-157
1.63613e-162
1.90968e-157
1.63613e-162
1.46982e-157
1.25944e-162
2.15482e-152
1.90968e-157
1.65829e-152
1.46982e-157
8.86543e-163
7.34884e-168
1.63613e-162
1.35607e-167
7.34884e-168
5.89776e-173
1.35607e-167
1.08819e-172
1.35607e-167
1.08819e-172
1.04396e-167
8.37817e-173
1.63613e-162
1.35607e-167
1.25944e-162
1.04396e-167
1.25944e-162
1.04396e-167
6.84664e-163
5.675e-168
1.04396e-167
8.37817e-173
5.675e-168
4.55416e-173
5.675e-168
4.55416e-173
2.15654e-170
1.61938e-175
6.84664e-163
5.675e-168
2.78115e-165
2.15654e-170
1.65829e-152
1.46982e-157
9.01573e-153
7.99065e-158
1.46982e-157
1.25944e-162
7.99065e-158
6.84664e-163
7.99065e-158
6.84664e-163
3.46949e-160
2.78115e-165
9.01573e-153
7.99065e-158
4.18575e-155
3.46949e-160
5.89776e-173
4.5856e-178
1.08819e-172
8.45994e-178
4.5856e-178
3.45651e-183
8.45994e-178
6.37626e-183
8.45994e-178
6.37626e-183
6.51399e-178
4.90997e-183
1.08819e-172
8.45994e-178
8.37817e-173
6.51399e-178
3.45651e-183
2.52742e-188
6.37626e-183
4.6619e-188
2.52742e-188
1.79378e-193
4.6619e-188
3.3084e-193
4.6619e-188
3.3084e-193
3.59009e-188
2.54792e-193
6.37626e-183
4.6619e-188
4.90997e-183
3.59009e-188
4.90997e-183
3.59009e-188
2.66867e-183
1.95119e-188
3.59009e-188
2.54792e-193
1.95119e-188
1.38471e-193
1.95119e-188
1.38471e-193
5.68786e-191
3.77899e-196
2.66867e-183
1.95119e-188
8.31097e-186
5.68786e-191
8.37817e-173
6.51399e-178
4.55416e-173
3.54066e-178
6.51399e-178
4.90997e-183
3.54066e-178
2.66867e-183
3.54066e-178
2.66867e-183
1.17813e-180
8.31097e-186
4.55416e-173
3.54066e-178
1.61938e-175
1.17813e-180
1.61938e-175
1.17813e-180
-4.53117e-173
-3.52392e-178
1.17813e-180
8.31097e-186
-3.52392e-178
-2.65685e-183
-3.52392e-178
-2.65685e-183
-6.51373e-178
-4.90976e-183
-4.53117e-173
-3.52392e-178
-8.37784e-173
-6.51373e-178
8.31097e-186
5.68786e-191
-2.65685e-183
-1.9431e-188
5.68786e-191
3.77899e-196
-1.9431e-188
-1.37933e-193
-1.9431e-188
-1.37933e-193
-3.58993e-188
-2.5478e-193
-2.65685e-183
-1.9431e-188
-4.90976e-183
-3.58993e-188
-4.90976e-183
-3.58993e-188
-6.38763e-183
-4.66966e-188
-3.58993e-188
-2.5478e-193
-4.66966e-188
-3.31354e-193
-4.66966e-188
-3.31354e-193
-2.53291e-188
-1.79742e-193
-6.38763e-183
-4.66966e-188
-3.46456e-183
-2.53291e-188
-8.37784e-173
-6.51373e-178
-1.09042e-172
-8.4761e-178
-6.51373e-178
-4.90976e-183
-8.4761e-178
-6.38763e-183
-8.4761e-178
-6.38763e-183
-4.59704e-178
-3.46456e-183
-1.09042e-172
-8.4761e-178
-5.91353e-173
-4.59704e-178
4.18575e-155
3.46949e-160
-8.95639e-153
-7.94145e-158
3.46949e-160
2.78115e-165
-7.94145e-158
-6.80719e-163
-7.94145e-158
-6.80719e-163
-1.46977e-157
-1.25939e-162
-8.95639e-153
-7.94145e-158
-1.65824e-152
-1.46977e-157
2.78115e-165
2.15654e-170
-6.80719e-163
-5.64439e-168
2.15654e-170
1.61938e-175
-5.64439e-168
-4.53117e-173
-5.64439e-168
-4.53117e-173
-1.04393e-167
-8.37784e-173
-6.80719e-163
-5.64439e-168
-1.25939e-162
-1.04393e-167
-1.25939e-162
-1.04393e-167
-1.63997e-162
-1.35905e-167
-1.04393e-167
-8.37784e-173
-1.35905e-167
-1.09042e-172
-1.35905e-167
-1.09042e-172
-7.36989e-168
-5.91353e-173
-1.63997e-162
-1.35905e-167
-8.89264e-163
-7.36989e-168
-1.65824e-152
-1.46977e-157
-2.16063e-152
-1.91448e-157
-1.46977e-157
-1.25939e-162
-1.91448e-157
-1.63997e-162
-1.91448e-157
-1.63997e-162
-1.03805e-157
-8.89264e-163
-2.16063e-152
-1.91448e-157
-1.17142e-152
-1.03805e-157
1.79378e-193
1.23639e-198
3.3084e-193
2.28017e-198
1.23639e-198
8.28064e-204
2.28017e-198
1.527e-203
2.28017e-198
1.527e-203
1.75614e-198
1.17612e-203
3.3084e-193
2.28017e-198
2.54792e-193
1.75614e-198
8.28064e-204
5.39149e-209
1.527e-203
9.94149e-209
5.39149e-209
3.41424e-214
9.94149e-209
6.29516e-214
9.94149e-209
6.29516e-214
7.65744e-209
4.84904e-214
1.527e-203
9.94149e-209
1.17612e-203
7.65744e-209
1.17612e-203
7.65744e-209
6.39123e-204
4.16098e-209
7.65744e-209
4.84904e-214
4.16098e-209
2.63481e-214
4.16098e-209
2.63481e-214
9.32625e-212
5.53235e-217
6.39123e-204
4.16098e-209
1.52942e-206
9.32625e-212
2.54792e-193
1.75614e-198
1.38471e-193
9.54355e-199
1.75614e-198
1.17612e-203
9.54355e-199
6.39123e-204
9.54355e-199
6.39123e-204
2.43867e-201
1.52942e-206
1.38471e-193
9.54355e-199
3.77899e-196
2.43867e-201
3.41424e-214
2.10385e-219
6.29516e-214
3.87881e-219
2.10385e-219
1.26199e-224
3.87881e-219
2.32654e-224
3.87881e-219
2.32654e-224
2.98789e-219
1.79222e-224
6.29516e-214
3.87881e-219
4.84904e-214
2.98789e-219
1.26199e-224
7.37207e-230
2.32654e-224
1.359e-229
7.37207e-230
4.19549e-235
1.359e-229
7.73373e-235
1.359e-229
7.73373e-235
1.04692e-229
5.95792e-235
2.32654e-224
1.359e-229
1.79222e-224
1.04692e-229
1.79222e-224
1.04692e-229
9.73757e-225
5.68796e-230
1.04692e-229
5.95792e-235
5.68796e-230
3.23685e-235
5.68796e-230
3.23685e-235
9.83025e-233
5.24485e-238
9.73757e-225
5.68796e-230
1.79537e-227
9.83025e-233
4.84904e-214
2.98789e-219
2.63481e-214
1.62345e-219
2.98789e-219
1.79222e-224
1.62345e-219
9.73757e-225
1.62345e-219
9.73757e-225
3.19395e-222
1.79537e-227
2.63481e-214
1.62345e-219
5.53235e-217
3.19395e-222
5.53235e-217
3.19395e-222
-2.62692e-214
-1.61889e-219
3.19395e-222
1.79537e-227
-1.61889e-219
-9.71191e-225
-1.61889e-219
-9.71191e-225
-2.98773e-219
-1.79213e-224
-2.62692e-214
-1.61889e-219
-4.8488e-214
-2.98773e-219
1.79537e-227
9.83025e-233
-9.71191e-225
-5.67389e-230
9.83025e-233
5.24485e-238
-5.67389e-230
-3.22934e-235
-5.67389e-230
-3.22934e-235
-1.04686e-229
-5.9576e-235
-9.71191e-225
-5.67389e-230
-1.79213e-224
-1.04686e-229
-1.79213e-224
-1.04686e-229
-2.32893e-224
-1.3603e-229
-1.04686e-229
-5.9576e-235
-1.3603e-229
-7.74062e-235
-1.3603e-229
-7.74062e-235
-7.38126e-230
-4.20036e-235
-2.32893e-224
-1.3603e-229
-1.26368e-224
-7.38126e-230
-4.8488e-214
-2.98773e-219
-6.30257e-214