<VTKFile type="UnstructuredGrid" version="0.1" byte_order="LittleEndian">
<UnstructuredGrid>
<Piece NumberOfPoints="2048" NumberOfCells="512">
<Points>
<DataArray type="Float64" NumberOfComponents="3" format="ascii">
0 0 0
0.125 0 0
0 0.125 0
0.125 0.125 0
0.125 0 0
0.25 0 0
0.125 0.125 0
0.25 0.125 0
0.125 0.125 0
0.25 0.125 0
0.125 0.25 0
0.25 0.25 0
0 0.125 0
0.125 0.125 0
0 0.25 0
0.125 0.25 0
0.25 0 0
0.375 0 0
0.25 0.125 0
0.375 0.125 0
0.375 0 0
0.5 0 0
0.375 0.125 0
0.5 0.125 0
0.375 0.125 0
0.5 0.125 0
0.375 0.25 0
0.5 0.25 0
0.25 0.125 0
0.375 0.125 0
0.25 0.25 0
0.375 0.25 0
0.25 0.25 0
0.375 0.25 0
0.25 0.375 0
0.375 0.375 0
0.375 0.25 0
0.5 0.25 0
0.375 0.375 0
0.5 0.375 0
0.375 0.375 0
0.5 0.375 0
0.375 0.5 0
0.5 0.5 0
0.25 0.375 0
0.375 0.375 0
0.25 0.5 0
0.375 0.5 0
0 0.25 0
0.125 0.25 0
0 0.375 0
0.125 0.375 0
0.125 0.25 0
0.25 0.25 0
0.125 0.375 0
0.25 0.375 0
0.125 0.375 0
0.25 0.375 0
0.125 0.5 0
0.25 0.5 0
0 0.375 0
0.125 0.375 0
0 0.5 0
0.125 0.5 0
0.5 0 0
0.625 0 0
0.5 0.125 0
0.625 0.125 0
0.625 0 0
0.75 0 0
0.625 0.125 0
0.75 0.125 0
0.625 0.125 0
0.75 0.125 0
0.625 0.25 0
0.75 0.25 0
0.5 0.125 0
0.625 0.125 0
0.5 0.25 0
0.625 0.25 0
0.75 0 0
0.875 0 0
0.75 0.125 0
0.875 0.125 0
0.875 0 0
1 0 0
0.875 0.125 0
1 0.125 0
0.875 0.125 0
1 0.125 0
0.875 0.25 0
1 0.25 0
0.75 0.125 0
0.875 0.125 0
0.75 0.25 0
0.875 0.25 0
0.75 0.25 0
0.875 0.25 0
0.75 0.375 0
0.875 0.375 0
0.875 0.25 0
1 0.25 0
0.875 0.375 0
1 0.375 0
0.875 0.375 0
1 0.375 0
0.875 0.5 0
1 0.5 0
0.75 0.375 0
0.875 0.375 0
0.75 0.5 0
0.875 0.5 0
0.5 0.25 0
0.625 0.25 0
0.5 0.375 0
0.625 0.375 0
0.625 0.25 0
0.75 0.25 0
0.625 0.375 0
0.75 0.375 0
0.625 0.375 0
0.75 0.375 0
0.625 0.5 0
0.75 0.5 0
0.5 0.375 0
0.625 0.375 0
0.5 0.5 0
0.625 0.5 0
0.5 0.5 0
0.625 0.5 0
0.5 0.625 0
0.625 0.625 0
0.625 0.5 0
0.75 0.5 0
0.625 0.625 0
0.75 0.625 0
0.625 0.625 0
0.75 0.625 0
0.625 0.75 0
0.75 0.75 0
0.5 0.625 0
0.625 0.625 0
0.5 0.75 0
0.625 0.75 0
0.75 0.5 0
0.875 0.5 0
0.75 0.625 0
0.875 0.625 0
0.875 0.5 0
1 0.5 0
0.875 0.625 0
1 0.625 0
0.875 0.625 0
1 0.625 0
0.875 0.75 0
1 0.75 0
0.75 0.625 0
0.875 0.625 0
0.75 0.75 0
0.875 0.75 0
0.75 0.75 0
0.875 0.75 0
0.75 0.875 0
0.875 0.875 0
0.875 0.75 0
1 0.75 0
0.875 0.875 0
1 0.875 0
0.875 0.875 0
1 0.875 0
0.875 1 0
1 1 0
0.75 0.875 0
0.875 0.875 0
0.75 1 0
0.875 1 0
0.5 0.75 0
0.625 0.75 0
0.5 0.875 0
0.625 0.875 0
0.625 0.75 0
0.75 0.75 0
0.625 0.875 0
0.75 0.875 0
0.625 0.875 0
0.75 0.875 0
0.625 1 0
0.75 1 0
0.5 0.875 0
0.625 0.875 0
0.5 1 0
0.625 1 0
0 0.5 0
0.125 0.5 0
0 0.625 0
0.125 0.625 0
0.125 0.5 0
0.25 0.5 0
0.125 0.625 0
0.25 0.625 0
0.125 0.625 0
0.25 0.625 0
0.125 0.75 0
0.25 0.75 0
0 0.625 0
0.125 0.625 0
0 0.75 0
0.125 0.75 0
0.25 0.5 0
0.375 0.5 0
0.25 0.625 0
0.375 0.625 0
0.375 0.5 0
0.5 0.5 0
0.375 0.625 0
0.5 0.625 0
0.375 0.625 0
0.5 0.625 0
0.375 0.75 0
0.5 0.75 0
0.25 0.625 0
0.375 0.625 0
0.25 0.75 0
0.375 0.75 0
0.25 0.75 0
0.375 0.75 0
0.25 0.875 0
0.375 0.875 0
0.375 0.75 0
0.5 0.75 0
0.375 0.875 0
0.5 0.875 0
0.375 0.875 0
0.5 0.875 0
0.375 1 0
0.5 1 0
0.25 0.875 0
0.375 0.875 0
0.25 1 0
0.375 1 0
0 0.75 0
0.125 0.75 0
0 0.875 0
0.125 0.875 0
0.125 0.75 0
0.25 0.75 0
0.125 0.875 0
0.25 0.875 0
0.125 0.875 0
0.25 0.875 0
0.125 1 0
0.25 1 0
0 0.875 0
0.125 0.875 0
0 1 0
0.125 1 0
1 0 0
1.125 0 0
1 0.125 0
1.125 0.125 0
1.125 0 0
1.25 0 0
1.125 0.125 0
1.25 0.125 0
1.125 0.125 0
1.25 0.125 0
1.125 0.25 0
1.25 0.25 0
1 0.125 0
1.125 0.125 0
1 0.25 0
1.125 0.25 0
1.25 0 0
1.375 0 0
1.25 0.125 0
1.375 0.125 0
1.375 0 0
1.5 0 0
1.375 0.125 0
1.5 0.125 0
1.375 0.125 0
1.5 0.125 0
1.375 0.25 0
1.5 0.25 0
1.25 0.125 0
1.375 0.125 0
1.25 0.25 0
1.375 0.25 0
1.25 0.25 0
1.375 0.25 0
1.25 0.375 0
1.375 0.375 0
1.375 0.25 0
1.5 0.25 0
1.375 0.375 0
1.5 0.375 0
1.375 0.375 0
1.5 0.375 0
1.375 0.5 0
1.5 0.5 0
1.25 0.375 0
1.375 0.375 0
1.25 0.5 0
1.375 0.5 0
1 0.25 0
1.125 0.25 0
1 0.375 0
1.125 0.375 0
1.125 0.25 0
1.25 0.25 0
1.125 0.375 0
1.25 0.375 0
1.125 0.375 0
1.25 0.375 0
1.125 0.5 0
1.25 0.5 0
1 0.375 0
1.125 0.375 0
1 0.5 0
1.125 0.5 0
1.5 0 0
1.625 0 0
1.5 0.125 0
1.625 0.125 0
1.625 0 0
1.75 0 0
1.625 0.125 0
1.75 0.125 0
1.625 0.125 0
1.75 0.125 0
1.625 0.25 0
1.75 0.25 0
1.5 0.125 0
1.625 0.125 0
1.5 0.25 0
1.625 0.25 0
1.75 0 0
1.875 0 0
1.75 0.125 0
1.875 0.125 0
1.875 0 0
2 0 0
1.875 0.125 0
2 0.125 0
1.875 0.125 0
2 0.125 0
1.875 0.25 0
2 0.25 0
1.75 0.125 0
1.875 0.125 0
1.75 0.25 0
1.875 0.25 0
1.75 0.25 0
1.875 0.25 0
1.75 0.375 0
1.875 0.375 0
1.875 0.25 0
2 0.25 0
1.875 0.375 0
2 0.375 0
1.875 0.375 0
2 0.375 0
1.875 0.5 0
2 0.5 0
1.75 0.375 0
1.875 0.375 0
1.75 0.5 0
1.875 0.5 0
1.5 0.25 0
1.625 0.25 0
1.5 0.375 0
1.625 0.375 0
1.625 0.25 0
1.75 0.25 0
1.625 0.375 0
1.75 0.375 0
1.625 0.375 0
1.75 0.375 0
1.625 0.5 0
1.75 0.5 0
1.5 0.375 0
1.625 0.375 0
1.5 0.5 0
1.625 0.5 0
1.5 0.5 0
1.625 0.5 0
1.5 0.625 0
1.625 0.625 0
1.625 0.5 0
1.75 0.5 0
1.625 0.625 0
1.75 0.625 0
1.625 0.625 0
1.75 0.625 0
1.625 0.75 0
1.75 0.75 0
1.5 0.625 0
1.625 0.625 0
1.5 0.75 0
1.625 0.75 0
1.75 0.5 0
1.875 0.5 0
1.75 0.625 0
1.875 0.625 0
1.875 0.5 0
2 0.5 0
1.875 0.625 0
2 0.625 0
1.875 0.625 0
2 0.625 0
1.875 0.75 0
2 0.75 0
1.75 0.625 0
1.875 0.625 0
1.75 0.75 0
1.875 0.75 0
1.75 0.75 0
1.875 0.75 0
1.75 0.875 0
1.875 0.875 0
1.875 0.75 0
2 0.75 0
1.875 0.875 0
2 0.875 0
1.875 0.875 0
2 0.875 0
1.875 1 0
2 1 0
1.75 0.875 0
1.875 0.875 0
1.75 1 0
1.875 1 0
1.5 0.75 0
1.625 0.75 0
1.5 0.875 0
1.625 0.875 0
1.625 0.75 0
1.75 0.75 0
1.625 0.875 0
1.75 0.875 0
1.625 0.875 0
1.75 0.875 0
1.625 1 0
1.75 1 0
1.5 0.875 0
1.625 0.875 0
1.5 1 0
1.625 1 0
1 0.5 0
1.125 0.5 0
1 0.625 0
1.125 0.625 0
1.125 0.5 0
1.25 0.5 0
1.125 0.625 0
1.25 0.625 0
1.125 0.625 0
1.25 0.625 0
1.125 0.75 0
1.25 0.75 0
1 0.625 0
1.125 0.625 0
1 0.75 0
1.125 0.75 0
1.25 0.5 0
1.375 0.5 0
1.25 0.625 0
1.375 0.625 0
1.375 0.5 0
1.5 0.5 0
1.375 0.625 0
1.5 0.625 0
1.375 0.625 0
1.5 0.625 0
1.375 0.75 0
1.5 0.75 0
1.25 0.625 0
1.375 0.625 0
1.25 0.75 0
1.375 0.75 0
1.25 0.75 0
1.375 0.75 0
1.25 0.875 0
1.375 0.875 0
1.375 0.75 0
1.5 0.75 0
1.375 0.875 0
1.5 0.875 0
1.375 0.875 0
1.5 0.875 0
1.375 1 0
1.5 1 0
1.25 0.875 0
1.375 0.875 0
1.25 1 0
1.375 1 0
1 0.75 0
1.125 0.75 0
1 0.875 0
1.125 0.875 0
1.125 0.75 0
1.25 0.75 0
1.125 0.875 0
1.25 0.875 0
1.125 0.875 0
1.25 0.875 0
1.125 1 0
1.25 1 0
1 0.875 0
1.125 0.875 0
1 1 0
1.125 1 0
2 0 0
2.125 0 0
2 0.125 0
2.125 0.125 0
2.125 0 0
2.25 0 0
2.125 0.125 0
2.25 0.125 0
2.125 0.125 0
2.25 0.125 0
2.125 0.25 0
2.25 0.25 0
2 0.125 0
2.125 0.125 0
2 0.25 0
2.125 0.25 0
2.25 0 0
2.375 0 0
2.25 0.125 0
2.375 0.125 0
2.375 0 0
2.5 0 0
2.375 0.125 0
2.5 0.125 0
2.375 0.125 0
2.5 0.125 0
2.375 0.25 0
2.5 0.25 0
2.25 0.125 0
2.375 0.125 0
2.25 0.25 0
2.375 0.25 0
2.25 0.25 0
2.375 0.25 0
2.25 0.375 0
2.375 0.375 0
2.375 0.25 0
2.5 0.25 0
2.375 0.375 0
2.5 0.375 0
2.375 0.375 0
2.5 0.375 0
2.375 0.5 0
2.5 0.5 0
2.25 0.375 0
2.375 0.375 0
2.25 0.5 0
2.375 0.5 0
2 0.25 0
2.125 0.25 0
2 0.375 0
2.125 0.375 0
2.125 0.25 0
2.25 0.25 0
2.125 0.375 0
2.25 0.375 0
2.125 0.375 0
2.25 0.375 0
2.125 0.5 0
2.25 0.5 0
2 0.375 0
2.125 0.375 0
2 0.5 0
2.125 0.5 0
2.5 0 0
2.625 0 0
2.5 0.125 0
2.625 0.125 0
2.625 0 0
2.75 0 0
2.625 0.125 0
2.75 0.125 0
2.625 0.125 0
2.75 0.125 0
2.625 0.25 0
2.75 0.25 0
2.5 0.125 0
2.625 0.125 0
2.5 0.25 0
2.625 0.25 0
2.75 0 0
2.875 0 0
2.75 0.125 0
2.875 0.125 0
2.875 0 0
3 0 0
2.875 0.125 0
3 0.125 0
2.875 0.125 0
3 0.125 0
2.875 0.25 0
3 0.25 0
2.75 0.125 0
2.875 0.125 0
2.75 0.25 0
2.875 0.25 0
2.75 0.25 0
2.875 0.25 0
2.75 0.375 0
2.875 0.375 0
2.875 0.25 0
3 0.25 0
2.875 0.375 0
3 0.375 0
2.875 0.375 0
3 0.375 0
2.875 0.5 0
3 0.5 0
2.75 0.375 0
2.875 0.375 0
2.75 0.5 0
2.875 0.5 0
2.5 0.25 0
2.625 0.25 0
2.5 0.375 0
2.625 0.375 0
2.625 0.25 0
2.75 0.25 0
2.625 0.375 0
2.75 0.375 0
2.625 0.375 0
2.75 0.375 0
2.625 0.5 0
2.75 0.5 0
2.5 0.375 0
2.625 0.375 0
2.5 0.5 0
2.625 0.5 0
2.5 0.5 0
2.625 0.5 0
2.5 0.625 0
2.625 0.625 0
2.625 0.5 0
2.75 0.5 0
2.625 0.625 0
2.75 0.625 0
2.625 0.625 0
2.75 0.625 0
2.625 0.75 0
2.75 0.75 0
2.5 0.625 0
2.625 0.625 0
2.5 0.75 0
2.625 0.75 0
2.75 0.5 0
2.875 0.5 0
2.75 0.625 0
2.875 0.625 0
2.875 0.5 0
3 0.5 0
2.875 0.625 0
3 0.625 0
2.875 0.625 0
3 0.625 0
2.875 0.75 0
3 0.75 0
2.75 0.625 0
2.875 0.625 0
2.75 0.75 0
2.875 0.75 0
2.75 0.75 0
2.875 0.75 0
2.75 0.875 0
2.875 0.875 0
2.875 0.75 0
3 0.75 0
2.875 0.875 0
3 0.875 0
2.875 0.875 0
3 0.875 0
2.875 1 0
3 1 0
2.75 0.875 0
2.875 0.875 0
2.75 1 0
2.875 1 0
2.5 0.75 0
2.625 0.75 0
2.5 0.875 0
2.625 0.875 0
2.625 0.75 0
2.75 0.75 0
2.625 0.875 0
2.75 0.875 0
2.625 0.875 0
2.75 0.875 0
2.625 1 0
2.75 1 0
2.5 0.875 0
2.625 0.875 0
2.5 1 0
2.625 1 0
2 0.5 0
2.125 0.5 0
2 0.625 0
2.125 0.625 0
2.125 0.5 0
2.25 0.5 0
2.125 0.625 0
2.25 0.625 0
2.125 0.625 0
2.25 0.625 0
2.125 0.75 0
2.25 0.75 0
2 0.625 0
2.125 0.625 0
2 0.75 0
2.125 0.75 0
2.25 0.5 0
2.375 0.5 0
2.25 0.625 0
2.375 0.625 0
2.375 0.5 0
2.5 0.5 0
2.375 0.625 0
2.5 0.625 0
2.375 0.625 0
2.5 0.625 0
2.375 0.75 0
2.5 0.75 0
2.25 0.625 0
2.375 0.625 0
2.25 0.75 0
2.375 0.75 0
2.25 0.75 0
2.375 0.75 0
2.25 0.875 0
2.375 0.875 0
2.375 0.75 0
2.5 0.75 0
2.375 0.875 0
2.5 0.875 0
2.375 0.875 0
2.5 0.875 0
2.375 1 0
2.5 1 0
2.25 0.875 0
2.375 0.875 0
2.25 1 0
2.375 1 0
2 0.75 0
2.125 0.75 0
2 0.875 0
2.125 0.875 0
2.125 0.75 0
2.25 0.75 0
2.125 0.875 0
2.25 0.875 0
2.125 0.875 0
2.25 0.875 0
2.125 1 0
2.25 1 0
2 0.875 0
2.125 0.875 0
2 1 0
2.125 1 0
3 0 0
3.125 0 0
3 0.125 0
3.125 0.125 0
3.125 0 0
3.25 0 0
3.125 0.125 0
3.25 0.125 0
3.125 0.125 0
3.25 0.125 0
3.125 0.25 0
3.25 0.25 0
3 0.125 0
3.125 0.125 0
3 0.25 0
3.125 0.25 0
3.25 0 0
3.375 0 0
3.25 0.125 0
3.375 0.125 0
3.375 0 0
3.5 0 0
3.375 0.125 0
3.5 0.125 0
3.375 0.125 0
3.5 0.125 0
3.375 0.25 0
3.5 0.25 0
3.25 0.125 0
3.375 0.125 0
3.25 0.25 0
3.375 0.25 0
3.25 0.25 0
3.375 0.25 0
3.25 0.375 0
3.375 0.375 0
3.375 0.25 0
3.5 0.25 0
3.375 0.375 0
3.5 0.375 0
3.375 0.375 0
3.5 0.375 0
3.375 0.5 0
3.5 0.5 0
3.25 0.375 0
3.375 0.375 0
3.25 0.5 0
[...]
<CellData Scalars="attribute">
<DataArray type="Int32" Name="attribute" format="ascii">
1
1
1
1
1
1
1
1
1
1
1
1
1
1
1
1
1
1
1
1
1
1
1
1
1
1
1
1
1
1
1
1
1
1
1
1
1
1
1
1
1
1
1
1
1
1
1
1
1
1
1
1
1
1
1
1
1
1
1
1
1
1
1
1
1
1
1
1
1
1
1
1
1
1
1
1
1
1
1
1
1
1
1
1
1
1
1
1
1
1
1
1
1
1
1
1
1
1
1
1
1
1
1
1
1
1
1
1
1
1
1
1
1
1
1
1
1
1
1
1
1
1
1
1
1
1
1
1
1
1
1
1
1
1
1
1
1
1
1
1
1
1
1
1
1
1
1
1
1
1
1
1
1
1
1
1
1
1
1
1
1
1
1
1
1
1
1
1
1
1
1
1
1
1
1
1
1
1
1
1
1
1
1
1
1
1
1
1
1
1
1
1
1
1
1
1
1
1
1
1
1
1
1
1
1
1
1
1
1
1
1
1
1
1
1
1
1
1
1
1
1
1
1
1
1
1
1
1
1
1
1
1
1
1
1
1
1
1
1
1
1
1
1
1
1
1
1
1
1
1
1
1
1
1
1
1
2
2
2
2
2
2
2
2
2
2
2
2
2
2
2
2
2
2
2
2
2
2
2
2
2
2
2
2
2
2
2
2
2
2
2
2
2
2
2
2
2
2
2
2
2
2
2
2
2
2
2
2
2
2
2
2
2
2
2
2
2
2
2
2
2
2
2
2
2
2
2
2
2
2
2
2
2
2
2
2
2
2
2
2
2
2
2
2
2
2
2
2
2
2
2
2
2
2
2
2
2
2
2
2
2
2
2
2
2
2
2
2
2
2
2
2
2
2
2
2
2
2
2
2
2
2
2
2
2
2
2
2
2
2
2
2
2
2
2
2
2
2
2
2
2
2
2
2
2
2
2
2
2
2
2
2
2
2
2
2
2
2
2
2
2
2
2
2
2
2
2
2
2
2
2
2
2
2
2
2
2
2
2
2
2
2
2
2
2
2
2
2
2
2
2
2
2
2
2
2
2
2
2
2
2
2
2
2
2
2
2
2
2
2
2
2
2
2
2
2
2
2
2
2
2
2
2
2
2
2
2
2
2
2
2
2
2
2
2
2
2
2
2
2
2
2
2
2
2
2
2
2
2
2
2
2
</DataArray>
</CellData>
<PointData >
<DataArray type="Float64" Name="Pressure" NumberOfComponents="1" format="ascii" >
-0.000138595
-9.15502e-08
-0.000226795
-1.51548e-07
-9.15502e-08
2.56362e-12
-1.51548e-07
4.43942e-12
-1.51548e-07
4.43942e-12
-1.0174e-07
3.01469e-12
-0.000226795
-1.51548e-07
-0.000151198
-1.0174e-07
2.56362e-12
-4.62022e-17
4.43942e-12
-8.24868e-17
-4.62022e-17
8.4894e-22
-8.24868e-17
1.57133e-21
-8.24868e-17
1.57133e-21
-5.74329e-17
1.1237e-21
4.43942e-12
-8.24868e-17
3.01469e-12
-5.74329e-17
3.01469e-12
-5.74329e-17
1.5449e-12
-2.93473e-17
-5.74329e-17
1.1237e-21
-2.93473e-17
5.74798e-22
-2.93473e-17
5.74798e-22
-9.71076e-19
1.82291e-23
1.5449e-12
-2.93473e-17
5.44344e-14
-9.71076e-19
-0.000151198
-1.0174e-07
-7.55998e-05
-5.16632e-08
-1.0174e-07
3.01469e-12
-5.16632e-08
1.5449e-12
-5.16632e-08
1.5449e-12
-1.14415e-09
5.44344e-14
-7.55998e-05
-5.16632e-08
-1.408e-09
-1.14415e-09
8.4894e-22
-8.10314e-27
1.57133e-21
-1.55438e-26
-8.10314e-27
1.33833e-31
-1.55438e-26
2.58157e-31
-1.55438e-26
2.58157e-31
-1.15141e-26
1.93971e-31
1.57133e-21
-1.55438e-26
1.1237e-21
-1.15141e-26
1.33833e-31
-5.39022e-37
2.58157e-31
-1.14611e-36
-5.39022e-37
1.35561e-41
-1.14611e-36
2.65413e-41
-1.14611e-36
2.65413e-41
-9.26465e-37
2.05525e-41
2.58157e-31
-1.14611e-36
1.93971e-31
-9.26465e-37
1.93971e-31
-9.26465e-37
1.00841e-31
-4.88481e-37
-9.26465e-37
2.05525e-41
-4.88481e-37
1.09143e-41
-4.88481e-37
1.09143e-41
-1.40768e-38
2.77878e-43
1.00841e-31
-4.88481e-37
2.8919e-33
-1.40768e-38
1.1237e-21
-1.15141e-26
5.74798e-22
-5.92586e-27
-1.15141e-26
1.93971e-31
-5.92586e-27
1.00841e-31
-5.92586e-27
1.00841e-31
-1.80928e-28
2.8919e-33
5.74798e-22
-5.92586e-27
1.82291e-23
-1.80928e-28
1.82291e-23
-1.80928e-28
-5.46099e-22
5.64386e-27
-1.80928e-28
2.8919e-33
5.64386e-27
-9.64291e-32
5.64386e-27
-9.64291e-32
1.14728e-26
-1.93459e-31
-5.46099e-22
5.64386e-27
-1.11842e-21
1.14728e-26
2.8919e-33
-1.40768e-38
-9.64291e-32
4.67153e-37
-1.40768e-38
2.77878e-43
4.67153e-37
-1.05024e-41
4.67153e-37
-1.05024e-41
9.23966e-37
-2.05192e-41
-9.64291e-32
4.67153e-37
-1.93459e-31
9.23966e-37
-1.93459e-31
9.23966e-37
-2.62276e-31
1.16356e-36
9.23966e-37
-2.05192e-41
1.16356e-36
-2.69126e-41
1.16356e-36
-2.69126e-41
5.50783e-37
-1.38185e-41
-2.62276e-31
1.16356e-36
-1.36845e-31
5.50783e-37
-1.11842e-21
1.14728e-26
-1.59933e-21
1.58083e-26
1.14728e-26
-1.93459e-31
1.58083e-26
-2.62276e-31
1.58083e-26
-2.62276e-31
8.29976e-27
-1.36845e-31
-1.59933e-21
1.58083e-26
-8.71255e-22
8.29976e-27
-1.408e-09
-1.14415e-09
7.55975e-05
4.98167e-08
-1.14415e-09
5.44344e-14
4.98167e-08
-1.45724e-12
4.98167e-08
-1.45724e-12
1.01219e-07
-2.99061e-12
7.55975e-05
4.98167e-08
0.000151197
1.01219e-07
5.44344e-14
-9.71076e-19
-1.45724e-12
2.77992e-17
-9.71076e-19
1.82291e-23
2.77992e-17
-5.46099e-22
2.77992e-17
-5.46099e-22
5.70728e-17
-1.11842e-21
-1.45724e-12
2.77992e-17
-2.99061e-12
5.70728e-17
-2.99061e-12
5.70728e-17
-4.52152e-12
8.4021e-17
5.70728e-17
-1.11842e-21
8.4021e-17
-1.59933e-21
8.4021e-17
-1.59933e-21
4.75085e-17
-8.71255e-22
-4.52152e-12
8.4021e-17
-2.6477e-12
4.75085e-17
0.000151197
1.01219e-07
0.000226797
1.53253e-07
1.01219e-07
-2.99061e-12
1.53253e-07
-4.52152e-12
1.53253e-07
-4.52152e-12
9.33569e-08
-2.6477e-12
0.000226797
1.53253e-07
0.000138597
9.33569e-08
1.35561e-41
9.06249e-48
2.65413e-41
3.14928e-48
9.06249e-48
1.05707e-51
3.14928e-48
2.05128e-51
3.14928e-48
2.05128e-51
-6.06517e-48
1.6009e-51
2.65413e-41
3.14928e-48
2.05525e-41
-6.06517e-48
1.05707e-51
4.35337e-57
2.05128e-51
7.36593e-57
4.35337e-57
6.7533e-62
7.36593e-57
1.28695e-61
7.36593e-57
1.28695e-61
5.08297e-57
9.98952e-62
2.05128e-51
7.36593e-57
1.6009e-51
5.08297e-57
1.6009e-51
5.08297e-57
8.62797e-52
2.64929e-57
5.08297e-57
9.98952e-62
2.64929e-57
5.41647e-62
2.64929e-57
5.41647e-62
4.45245e-59
1.03035e-63
8.62797e-52
2.64929e-57
1.91153e-53
4.45245e-59
2.05525e-41
-6.06517e-48
1.09143e-41
-4.09889e-48
-6.06517e-48
1.6009e-51
-4.09889e-48
8.62797e-52
-4.09889e-48
8.62797e-52
-2.29025e-49
1.91153e-53
1.09143e-41
-4.09889e-48
2.77878e-43
-2.29025e-49
6.7533e-62
3.85804e-67
1.28695e-61
6.91539e-67
3.85804e-67
3.46322e-72
6.91539e-67
6.50481e-72
6.91539e-67
6.50481e-72
5.08043e-67
5.01444e-72
1.28695e-61
6.91539e-67
9.98952e-62
5.08043e-67
3.46322e-72
2.05088e-77
6.50481e-72
3.74461e-77
2.05088e-77
1.38445e-82
3.74461e-77
2.57895e-82
3.74461e-77
2.57895e-82
2.81287e-77
1.98045e-82
6.50481e-72
3.74461e-77
5.01444e-72
2.81287e-77
5.01444e-72
2.81287e-77
2.72265e-72
1.51228e-77
2.81287e-77
1.98045e-82
1.51228e-77
1.07554e-82
1.51228e-77
1.07554e-82
2.17495e-79
1.5067e-84
2.72265e-72
1.51228e-77
4.4356e-74
2.17495e-79
9.98952e-62
5.08043e-67
5.41647e-62
2.7051e-67
5.08043e-67
5.01444e-72
2.7051e-67
2.72265e-72
2.7051e-67
2.72265e-72
4.34635e-69
4.4356e-74
5.41647e-62
2.7051e-67
1.03035e-63
4.34635e-69
1.03035e-63
4.34635e-69
-5.26817e-62
-2.6436e-67
4.34635e-69
4.4356e-74
-2.6436e-67
-2.65925e-72
-2.6436e-67
-2.65925e-72
-5.0821e-67
-5.01269e-72
-5.26817e-62
-2.6436e-67
-9.98323e-62
-5.0821e-67
4.4356e-74
2.17495e-79
-2.65925e-72
-1.48152e-77
2.17495e-79
1.5067e-84
-1.48152e-77
-1.0541e-82
-1.48152e-77
-1.0541e-82
-2.81331e-77
-1.9801e-82
-2.65925e-72
-1.48152e-77
-5.01269e-72
-2.81331e-77
-5.01269e-72
-2.81331e-77
-6.56466e-72
-3.77704e-77
-2.81331e-77
-1.9801e-82
-3.77704e-77
-2.59966e-82
-3.77704e-77
-2.59966e-82
-2.07399e-77
-1.39914e-82
-6.56466e-72
-3.77704e-77
-3.50562e-72
-2.07399e-77
-9.98323e-62
-5.0821e-67
-1.30054e-61
-6.98398e-67
-5.0821e-67
-5.01269e-72
-6.98398e-67
-6.56466e-72
-6.98398e-67
-6.56466e-72
-3.90753e-67
-3.50562e-72
-1.30054e-61
-6.98398e-67
-6.84923e-62
-3.90753e-67
2.77878e-43
-2.29025e-49
-1.05024e-41
3.74067e-48
-2.29025e-49
1.91153e-53
3.74067e-48
-8.34974e-52
3.74067e-48
-8.34974e-52
5.95159e-48
-1.59924e-51
-1.05024e-41
3.74067e-48
-2.05192e-41
5.95159e-48
1.91153e-53
4.45245e-59
-8.34974e-52
-2.5866e-57
4.45245e-59
1.03035e-63
-2.5866e-57
-5.26817e-62
-2.5866e-57
-5.26817e-62
-5.0877e-57
-9.98323e-62
-8.34974e-52
-2.5866e-57
-1.59924e-51
-5.0877e-57
-1.59924e-51
-5.0877e-57
-2.07623e-51
-7.44906e-57
-5.0877e-57
-9.98323e-62
-7.44906e-57
-1.30054e-61
-7.44906e-57
-1.30054e-61
-4.41578e-57
-6.84923e-62
-2.07623e-51
-7.44906e-57
-1.07459e-51
-4.41578e-57
-2.05192e-41
5.95159e-48
-2.69126e-41
-3.16525e-48
5.95159e-48
-1.59924e-51
-3.16525e-48
-2.07623e-51
-3.16525e-48
-2.07623e-51
-9.15137e-48
-1.07459e-51
-2.69126e-41
-3.16525e-48
-1.38185e-41
-9.15137e-48
1.38445e-82
7.65103e-88
2.57895e-82
1.40729e-87
7.65103e-88
4.27206e-93
1.40729e-87
7.92542e-93
1.40729e-87
7.92542e-93
1.06836e-87
6.07886e-93
2.57895e-82
1.40729e-87
1.98045e-82
1.06836e-87
4.27206e-93
2.12482e-98
7.92542e-93
3.92008e-98
2.12482e-98
1.02153e-103
3.92008e-98
1.89138e-103
3.92008e-98
1.89138e-103
2.99255e-98
1.4509e-103
7.92542e-93
3.92008e-98
6.07886e-93
2.99255e-98
6.07886e-93
2.99255e-98
3.30201e-93
1.62202e-98
2.99255e-98
1.4509e-103
1.62202e-98
7.88369e-104
1.62202e-98
7.88369e-104
1.80378e-100
8.28335e-106
3.30201e-93
1.62202e-98
3.99801e-95
1.80378e-100
1.98045e-82
1.06836e-87
1.07554e-82
5.774e-88
1.06836e-87
6.07886e-93
5.774e-88
3.30201e-93
5.774e-88
3.30201e-93
7.32256e-90
3.99801e-95
1.07554e-82
5.774e-88
1.5067e-84
7.32256e-90
1.02153e-103
4.52698e-109
1.89138e-103
8.36131e-109
4.52698e-109
1.90956e-114
8.36131e-109
3.53198e-114
8.36131e-109
3.53198e-114
6.40287e-109
2.71111e-114
1.89138e-103
8.36131e-109
1.4509e-103
6.40287e-109
1.90956e-114
7.53336e-120
3.53198e-114
1.39185e-119
7.53336e-120
2.81551e-125
1.39185e-119
5.2045e-125
1.39185e-119
5.2045e-125
1.06782e-119
3.99773e-125
3.53198e-114
1.39185e-119
2.71111e-114
1.06782e-119
2.71111e-114
1.06782e-119
1.47355e-114
5.80186e-120
1.06782e-119
3.99773e-125
5.80186e-120
2.17333e-125
5.80186e-120
2.17333e-125
4.93334e-122
1.732e-127
1.47355e-114
5.80186e-120
1.3472e-116
4.93334e-122
1.4509e-103
6.40287e-109
7.88369e-104
3.47598e-109
6.40287e-109
2.71111e-114
3.47598e-109
1.47355e-114
3.47598e-109
1.47355e-114
3.38164e-111
1.3472e-116
7.88369e-104
3.47598e-109
8.28335e-106
3.38164e-111
8.28335e-106
3.38164e-111
-7.76633e-104
-3.42816e-109
3.38164e-111
1.3472e-116
-3.42816e-109
-1.45448e-114
-3.42816e-109
-1.45448e-114
-6.40296e-109
-2.71104e-114
-7.76633e-104
-3.42816e-109
-1.45084e-103
-6.40296e-109
1.3472e-116
4.93334e-122
-1.45448e-114
-5.73209e-120
4.93334e-122
1.732e-127
-5.73209e-120
-2.14881e-125
-5.73209e-120
-2.14881e-125
-1.06782e-119
-3.99764e-125
-1.45448e-114
-5.73209e-120
-2.71104e-114
-1.06782e-119
-2.71104e-114
-1.06782e-119
-3.55085e-114
-1.3988e-119
-1.06782e-119
-3.99764e-125
-1.3988e-119
-5.22876e-125
-1.3988e-119
-5.22876e-125
-7.5826e-120
-2.8327e-125
-3.55085e-114
-1.3988e-119
-1.92293e-114
-7.5826e-120
-1.45084e-103
-6.40296e-109
-1.90296e-103
-8.40924e-109
-6.40296e-109
-2.71104e-114
-8.40924e-109
-3.55085e-114
-8.40924e-109
-3.55085e-114
-4.56091e-109
-1.92293e-114
-1.90296e-103
-8.40924e-109
-1.02974e-103
-4.56091e-109
1.5067e-84
7.32256e-90
-1.0541e-82
-5.67048e-88
7.32256e-90
3.99801e-95
-5.67048e-88
-3.24527e-93
-5.67048e-88
-3.24527e-93
-1.06845e-87
-6.07833e-93
-1.0541e-82
-5.67048e-88
-1.9801e-82
-1.06845e-87
3.99801e-95
1.80378e-100
-3.24527e-93
-1.59652e-98
1.80378e-100
8.28335e-106
-1.59652e-98
-7.76633e-104
-1.59652e-98
-7.76633e-104
-2.99266e-98
-1.45084e-103
-3.24527e-93
-1.59652e-98
-6.07833e-93
-2.99266e-98
-6.07833e-93
-2.99266e-98
-7.98099e-93
-3.94586e-98
-2.99266e-98
-1.45084e-103
-3.94586e-98
-1.90296e-103
-3.94586e-98
-1.90296e-103
-2.14308e-98
-1.02974e-103
-7.98099e-93
-3.94586e-98
-4.31147e-93
-2.14308e-98
-1.9801e-82
-1.06845e-87
-2.59966e-82
-1.41792e-87
-1.06845e-87
-6.07833e-93
-1.41792e-87
-7.98099e-93
-1.41792e-87
-7.98099e-93
-7.72639e-88
-4.31147e-93
-2.59966e-82
-1.41792e-87
-1.39914e-82
-7.72639e-88
2.81551e-125
9.90574e-131
5.2045e-125
1.83008e-130
9.90574e-131
3.298e-136
1.83008e-130
6.09376e-136
1.83008e-130
6.09376e-136
1.40568e-130
4.68374e-136
5.2045e-125
1.83008e-130
3.99773e-125
1.40568e-130
3.298e-136
1.03674e-141
6.09376e-136
1.915e-141
1.03674e-141
3.08354e-147
1.915e-141
5.69549e-147
1.915e-141
5.69549e-147
1.47207e-141
4.37989e-147
6.09376e-136
1.915e-141
4.68374e-136
1.47207e-141
4.68374e-136
1.47207e-141
2.54656e-136
8.00324e-142
1.47207e-141
4.37989e-147
8.00324e-142
2.38145e-147
8.00324e-142
2.38145e-147
5.19672e-144
1.44666e-149
2.54656e-136
8.00324e-142
1.77111e-138
5.19672e-144
3.99773e-125
1.40568e-130
2.17333e-125
7.64086e-131
1.40568e-130
4.68374e-136
7.64086e-131
2.54656e-136
7.64086e-131
2.54656e-136
5.67725e-133
1.77111e-138
2.17333e-125
7.64086e-131
1.732e-127
5.67725e-133
3.08354e-147
8.66914e-153
5.69549e-147
1.60091e-152
8.66914e-153
2.30515e-158
1.60091e-152
4.25644e-158
1.60091e-152
4.25644e-158
1.2313e-152
3.27458e-158
5.69549e-147
1.60091e-152
4.37989e-147
1.2313e-152
2.30515e-158
5.79274e-164
4.25644e-158
1.06945e-163
5.79274e-164
1.37519e-169
1.06945e-163
2.53857e-169
1.06945e-163
2.53857e-169
8.22873e-164
1.95361e-169
4.25644e-158
1.06945e-163
3.27458e-158
8.22873e-164
3.27458e-158
8.22873e-164
1.78042e-158
4.47385e-164
8.22873e-164
1.95361e-169
4.47385e-164
1.06213e-169
4.47385e-164
1.06213e-169
2.2206e-166
4.9314e-172
1.78042e-158
4.47385e-164
9.45286e-161
2.2206e-166
4.37989e-147
1.2313e-152
2.38145e-147
6.69459e-153
1.2313e-152
3.27458e-158
6.69459e-153
1.78042e-158
6.69459e-153
1.78042e-158
3.7999e-155
9.45286e-161
2.38145e-147
6.69459e-153
1.44666e-149
3.7999e-155
1.44666e-149
3.7999e-155
-2.36096e-147
-6.64077e-153
3.7999e-155
9.45286e-161
-6.64077e-153
-1.76703e-158
-6.64077e-153
-1.76703e-158
-1.23127e-152
-3.27449e-158
-2.36096e-147
-6.64077e-153
-4.37978e-147
-1.23127e-152
9.45286e-161
2.2206e-166
-1.76703e-158
-4.44238e-164
2.2206e-166
4.9314e-172
-4.44238e-164
-1.05514e-169
-4.44238e-164
-1.05514e-169
-8.22849e-164
-1.95354e-169
-1.76703e-158
-4.44238e-164
-3.27449e-158
-8.22849e-164
-3.27449e-158
-8.22849e-164
-4.26959e-158
-1.07254e-163
-8.22849e-164
-1.95354e-169
-1.07254e-163
-2.5454e-169
-1.07254e-163
-2.5454e-169
-5.8146e-164
-1.38003e-169
-4.26959e-158
-1.07254e-163
-2.31446e-158
-5.8146e-164
-4.37978e-147
-1.23127e-152
-5.71568e-147
-1.60621e-152
-1.23127e-152
-3.27449e-158
-1.60621e-152
-4.26959e-158
-1.60621e-152
-4.26959e-158
-8.70667e-153
-2.31446e-158
-5.71568e-147
-1.60621e-152
-3.09784e-147
-8.70667e-153
1.732e-127
5.67725e-133
-2.14881e-125
-7.56054e-131
5.67725e-133
1.77111e-138
-7.56054e-131
-2.52149e-136
-7.56054e-131
-2.52149e-136
-1.40567e-130
-4.68363e-136
-2.14881e-125
-7.56054e-131
-3.99764e-125
-1.40567e-130
1.77111e-138
5.19672e-144
-2.52149e-136
-7.92969e-142
5.19672e-144
1.44666e-149
-7.92969e-142
-2.36096e-147
-7.92969e-142
-2.36096e-147
-1.47205e-141
-4.37978e-147
-2.52149e-136
-7.92969e-142
-4.68363e-136
-1.47205e-141
-4.68363e-136
-1.47205e-141
-6.11853e-136
-1.92228e-141
-1.47205e-141
-4.37978e-147
-1.92228e-141
-5.71568e-147
-1.92228e-141
-5.71568e-147
-1.04189e-141
-3.09784e-147
-6.11853e-136
-1.92228e-141
-3.31554e-136
-1.04189e-141
-3.99764e-125
-1.40567e-130
-5.22876e-125
-1.83805e-130
-1.40567e-130
-4.68363e-136
-1.83805e-130
-6.11853e-136
-1.83805e-130
-6.11853e-136
-9.96218e-131
-3.31554e-136
-5.22876e-125
-1.83805e-130
-2.8327e-125
-9.96218e-131
1.37519e-169
3.08051e-175
2.53857e-169
5.68577e-175
3.08051e-175
6.50241e-181
5.68577e-175
1.20003e-180
5.68577e-175
1.20003e-180
4.37614e-175
9.23738e-181
2.53857e-169
5.68577e-175
1.95361e-169
4.37614e-175
6.50241e-181
1.29062e-186
1.20003e-180
2.38157e-186
1.29062e-186
2.40202e-192
2.38157e-186
4.43194e-192
2.38157e-186
4.43194e-192
1.83343e-186
3.41223e-192
1.20003e-180
2.38157e-186
9.23738e-181
1.83343e-186
9.23738e-181
1.83343e-186
5.0217e-181
9.96655e-187
1.83343e-186
3.41223e-192
9.96655e-187
1.8548e-192
9.96655e-187
1.8548e-192
3.78753e-189
6.59563e-195
5.0217e-181
9.96655e-187
2.03995e-183
3.78753e-189
1.95361e-169
4.37614e-175
1.06213e-169
2.37909e-175
4.37614e-175
9.23738e-181
2.37909e-175
5.0217e-181
2.37909e-175
5.0217e-181
1.03303e-177
2.03995e-183
1.06213e-169
2.37909e-175
4.9314e-172
1.03303e-177
2.40202e-192
4.17503e-198
4.43194e-192
7.70247e-198
4.17503e-198
6.73851e-204
7.70247e-198
1.24306e-203
7.70247e-198
1.24306e-203
5.93074e-198
9.57201e-204
4.43194e-192
7.70247e-198
3.41223e-192
5.93074e-198
6.73851e-204
1.0013e-209
1.24306e-203
1.84692e-209
1.0013e-209
1.35122e-215
1.84692e-209
2.49214e-215
1.84692e-209
2.49214e-215
1.42229e-209
1.91928e-215
1.24306e-203
1.84692e-209
9.57201e-204
1.42229e-209
9.57201e-204
1.42229e-209
5.20258e-204
7.73004e-210
1.42229e-209
1.91928e-215
7.73004e-210
1.04307e-215
7.73004e-210
1.04307e-215
2.25347e-212
2.84675e-218
5.20258e-204
7.73004e-210
1.6203e-206
2.25347e-212
3.41223e-192
5.93074e-198
1.8548e-192
3.22364e-198
5.93074e-198
9.57201e-204
3.22364e-198
5.20258e-204
3.22364e-198
5.20258e-204
1.07269e-200
1.6203e-206
1.8548e-192
3.22364e-198
6.59563e-195
1.07269e-200
6.59563e-195
1.07269e-200
-1.84543e-192
-3.2084e-198
1.07269e-200
1.6203e-206
-3.2084e-198
-5.17955e-204
-3.2084e-198
-5.17955e-204
-5.9305e-198
-9.5716e-204
-1.84543e-192
-3.2084e-198
-3.41209e-192
-5.9305e-198
1.6203e-206
2.25347e-212
-5.17955e-204
-7.698e-210
2.25347e-212
2.84675e-218
-7.698e-210
-1.03901e-215
-7.698e-210
-1.03901e-215
-1.42223e-209
-1.9192e-215
-5.17955e-204
-7.698e-210
-9.5716e-204
-1.42223e-209
-9.5716e-204
-1.42223e-209
-1.24527e-203
-1.84999e-209
-1.42223e-209
-1.9192e-215
-1.84999e-209
-2.49601e-215
-1.84999e-209
-2.49601e-215
-1.00347e-209
-1.35396e-215
-1.24527e-203
-1.84999e-209
-6.7542e-204
-1.00347e-209
-3.41209e-192
-5.9305e-198
-4.44101e-192
-7.71719e-198
-5.9305e-198
-9.5716e-204
-7.71719e-198
-1.24527e-203
-7.71719e-198
-1.24527e-203
-4.18545e-198
-6.7542e-204
-4.44101e-192
-7.71719e-198
-2.40845e-192
-4.18545e-198
4.9314e-172
1.03303e-177
-1.05514e-169
-2.36444e-175
1.03303e-177
2.03995e-183
-2.36444e-175
-4.99276e-181
-2.36444e-175
-4.99276e-181
-4.37599e-175
-9.23705e-181
-1.05514e-169
-2.36444e-175
-1.95354e-169
-4.37599e-175
2.03995e-183
3.78753e-189
-4.99276e-181
-9.9128e-187
3.78753e-189
6.59563e-195
-9.9128e-187
-1.84543e-192
-9.9128e-187
-1.84543e-192
-1.83337e-186
-3.41209e-192
-4.99276e-181
-9.9128e-187
-9.23705e-181
-1.83337e-186
-9.23705e-181
-1.83337e-186
-1.20285e-180
-2.38679e-186
-1.83337e-186
-3.41209e-192
-2.38679e-186
-4.44101e-192
-2.38679e-186
-4.44101e-192
-1.29432e-186
-2.40845e-192
-1.20285e-180
-2.38679e-186
-6.52237e-181
-1.29432e-186
-1.95354e-169
-4.37599e-175
-2.5454e-169
-5.70007e-175
-4.37599e-175
-9.23705e-181
-5.70007e-175
-1.20285e-180
-5.70007e-175
-1.20285e-180
-3.09064e-175
-6.52237e-181
-2.5454e-169
-5.70007e-175
-1.38003e-169
-3.09064e-175
1.35122e-215
1.61662e-221
2.49214e-215
2.98138e-221
1.61662e-221
1.63123e-227
2.98138e-221
3.00809e-227
2.98138e-221
3.00809e-227
2.29619e-221
2.31687e-227
2.49214e-215
2.98138e-221
1.91928e-215
2.29619e-221
1.63123e-227
1.20416e-233
3.00809e-227
2.22037e-233
1.20416e-233
2.02277e-240
2.22037e-233
3.72956e-240
2.22037e-233
3.72956e-240
1.71024e-233
2.8728e-240
3.00809e-227
2.22037e-233
2.31687e-227
1.71024e-233
2.31687e-227
1.71024e-233
1.25902e-227
9.29327e-234
1.71024e-233
2.8728e-240
9.29327e-234
1.56098e-240
9.29327e-234
1.56098e-240
2.08306e-236
3.27796e-243
1.25902e-227
9.29327e-234
3.01299e-230
2.08306e-236
1.91928e-215
2.29619e-221
1.04307e-215
1.24784e-221
2.29619e-221
2.31687e-227
1.24784e-221
1.25902e-227
1.24784e-221
1.25902e-227
3.18877e-224
3.01299e-230
1.04307e-215
1.24784e-221
2.84675e-218
3.18877e-224
2.02277e-240
-1.33059e-245
3.72956e-240
-2.45316e-245
-1.33059e-245
-3.06611e-251
-2.45316e-245
-5.65253e-251
-2.45316e-245
-5.65253e-251
-1.88969e-245
-4.35434e-251
3.72956e-240
-2.45316e-245
2.8728e-240
-1.88969e-245
-3.06611e-251
-4.37773e-257
-5.65253e-251
-8.0701e-257
-4.37773e-257
-4.5014e-263
-8.0701e-257
-8.29761e-263
-8.0701e-257
-8.29761e-263
-6.21687e-257
-6.39231e-263
-5.65253e-251
-8.0701e-257
-4.35434e-251
-6.21687e-257
-4.35434e-251
-6.21687e-257
-2.36582e-251
-3.37765e-257
-6.21687e-257
-6.39231e-263
-3.37765e-257
-3.47285e-263
-3.37765e-257
-3.47285e-263
-5.83769e-260
-5.6275e-266
-2.36582e-251
-3.37765e-257
-4.36216e-254
-5.83769e-260
2.8728e-240
-1.88969e-245
1.56098e-240
-1.02675e-245
-1.88969e-245
-4.35434e-251
-1.02675e-245
-2.36582e-251
-1.02675e-245
-2.36582e-251
-2.02008e-248
-4.36216e-254
1.56098e-240
-1.02675e-245
3.27796e-243
-2.02008e-248
3.27796e-243
-2.02008e-248
-1.55631e-240
1.02387e-245
-2.02008e-248
-4.36216e-254
1.02387e-245
2.35958e-251
1.02387e-245
2.35958e-251
1.88959e-245
4.35411e-251
-1.55631e-240
1.02387e-245
-2.87266e-240
1.88959e-245
-4.36216e-254
-5.83769e-260
2.35958e-251
3.3693e-257
-5.83769e-260
-5.6275e-266
3.3693e-257
3.46479e-263
3.3693e-257
3.46479e-263
6.21654e-257
6.39197e-263
2.35958e-251
3.3693e-257
4.35411e-251
6.21654e-257
4.35411e-251
6.21654e-257
5.65832e-251
8.07781e-257
6.21654e-257
6.39197e-263
8.07781e-257
8.305e-263
8.07781e-257
8.305e-263
4.38319e-257
4.50663e-263
5.65832e-251
8.07781e-257
3.0702e-251
4.38319e-257
-2.87266e-240