<VTKFile type="UnstructuredGrid" version="0.1" byte_order="LittleEndian">
<UnstructuredGrid>
<Piece NumberOfPoints="2048" NumberOfCells="512">
<Points>
<DataArray type="Float64" NumberOfComponents="3" format="ascii">
0 0 0
0.125 0 0
0 0.125 0
0.125 0.125 0
0.125 0 0
0.25 0 0
0.125 0.125 0
0.25 0.125 0
0.125 0.125 0
0.25 0.125 0
0.125 0.25 0
0.25 0.25 0
0 0.125 0
0.125 0.125 0
0 0.25 0
0.125 0.25 0
0.25 0 0
0.375 0 0
0.25 0.125 0
0.375 0.125 0
0.375 0 0
0.5 0 0
0.375 0.125 0
0.5 0.125 0
0.375 0.125 0
0.5 0.125 0
0.375 0.25 0
0.5 0.25 0
0.25 0.125 0
0.375 0.125 0
0.25 0.25 0
0.375 0.25 0
0.25 0.25 0
0.375 0.25 0
0.25 0.375 0
0.375 0.375 0
0.375 0.25 0
0.5 0.25 0
0.375 0.375 0
0.5 0.375 0
0.375 0.375 0
0.5 0.375 0
0.375 0.5 0
0.5 0.5 0
0.25 0.375 0
0.375 0.375 0
0.25 0.5 0
0.375 0.5 0
0 0.25 0
0.125 0.25 0
0 0.375 0
0.125 0.375 0
0.125 0.25 0
0.25 0.25 0
0.125 0.375 0
0.25 0.375 0
0.125 0.375 0
0.25 0.375 0
0.125 0.5 0
0.25 0.5 0
0 0.375 0
0.125 0.375 0
0 0.5 0
0.125 0.5 0
0.5 0 0
0.625 0 0
0.5 0.125 0
0.625 0.125 0
0.625 0 0
0.75 0 0
0.625 0.125 0
0.75 0.125 0
0.625 0.125 0
0.75 0.125 0
0.625 0.25 0
0.75 0.25 0
0.5 0.125 0
0.625 0.125 0
0.5 0.25 0
0.625 0.25 0
0.75 0 0
0.875 0 0
0.75 0.125 0
0.875 0.125 0
0.875 0 0
1 0 0
0.875 0.125 0
1 0.125 0
0.875 0.125 0
1 0.125 0
0.875 0.25 0
1 0.25 0
0.75 0.125 0
0.875 0.125 0
0.75 0.25 0
0.875 0.25 0
0.75 0.25 0
0.875 0.25 0
0.75 0.375 0
0.875 0.375 0
0.875 0.25 0
1 0.25 0
0.875 0.375 0
1 0.375 0
0.875 0.375 0
1 0.375 0
0.875 0.5 0
1 0.5 0
0.75 0.375 0
0.875 0.375 0
0.75 0.5 0
0.875 0.5 0
0.5 0.25 0
0.625 0.25 0
0.5 0.375 0
0.625 0.375 0
0.625 0.25 0
0.75 0.25 0
0.625 0.375 0
0.75 0.375 0
0.625 0.375 0
0.75 0.375 0
0.625 0.5 0
0.75 0.5 0
0.5 0.375 0
0.625 0.375 0
0.5 0.5 0
0.625 0.5 0
0.5 0.5 0
0.625 0.5 0
0.5 0.625 0
0.625 0.625 0
0.625 0.5 0
0.75 0.5 0
0.625 0.625 0
0.75 0.625 0
0.625 0.625 0
0.75 0.625 0
0.625 0.75 0
0.75 0.75 0
0.5 0.625 0
0.625 0.625 0
0.5 0.75 0
0.625 0.75 0
0.75 0.5 0
0.875 0.5 0
0.75 0.625 0
0.875 0.625 0
0.875 0.5 0
1 0.5 0
0.875 0.625 0
1 0.625 0
0.875 0.625 0
1 0.625 0
0.875 0.75 0
1 0.75 0
0.75 0.625 0
0.875 0.625 0
0.75 0.75 0
0.875 0.75 0
0.75 0.75 0
0.875 0.75 0
0.75 0.875 0
0.875 0.875 0
0.875 0.75 0
1 0.75 0
0.875 0.875 0
1 0.875 0
0.875 0.875 0
1 0.875 0
0.875 1 0
1 1 0
0.75 0.875 0
0.875 0.875 0
0.75 1 0
0.875 1 0
0.5 0.75 0
0.625 0.75 0
0.5 0.875 0
0.625 0.875 0
0.625 0.75 0
0.75 0.75 0
0.625 0.875 0
0.75 0.875 0
0.625 0.875 0
0.75 0.875 0
0.625 1 0
0.75 1 0
0.5 0.875 0
0.625 0.875 0
0.5 1 0
0.625 1 0
0 0.5 0
0.125 0.5 0
0 0.625 0
0.125 0.625 0
0.125 0.5 0
0.25 0.5 0
0.125 0.625 0
0.25 0.625 0
0.125 0.625 0
0.25 0.625 0
0.125 0.75 0
0.25 0.75 0
0 0.625 0
0.125 0.625 0
0 0.75 0
0.125 0.75 0
0.25 0.5 0
0.375 0.5 0
0.25 0.625 0
0.375 0.625 0
0.375 0.5 0
0.5 0.5 0
0.375 0.625 0
0.5 0.625 0
0.375 0.625 0
0.5 0.625 0
0.375 0.75 0
0.5 0.75 0
0.25 0.625 0
0.375 0.625 0
0.25 0.75 0
0.375 0.75 0
0.25 0.75 0
0.375 0.75 0
0.25 0.875 0
0.375 0.875 0
0.375 0.75 0
0.5 0.75 0
0.375 0.875 0
0.5 0.875 0
0.375 0.875 0
0.5 0.875 0
0.375 1 0
0.5 1 0
0.25 0.875 0
0.375 0.875 0
0.25 1 0
0.375 1 0
0 0.75 0
0.125 0.75 0
0 0.875 0
0.125 0.875 0
0.125 0.75 0
0.25 0.75 0
0.125 0.875 0
0.25 0.875 0
0.125 0.875 0
0.25 0.875 0
0.125 1 0
0.25 1 0
0 0.875 0
0.125 0.875 0
0 1 0
0.125 1 0
1 0 0
1.125 0 0
1 0.125 0
1.125 0.125 0
1.125 0 0
1.25 0 0
1.125 0.125 0
1.25 0.125 0
1.125 0.125 0
1.25 0.125 0
1.125 0.25 0
1.25 0.25 0
1 0.125 0
1.125 0.125 0
1 0.25 0
1.125 0.25 0
1.25 0 0
1.375 0 0
1.25 0.125 0
1.375 0.125 0
1.375 0 0
1.5 0 0
1.375 0.125 0
1.5 0.125 0
1.375 0.125 0
1.5 0.125 0
1.375 0.25 0
1.5 0.25 0
1.25 0.125 0
1.375 0.125 0
1.25 0.25 0
1.375 0.25 0
1.25 0.25 0
1.375 0.25 0
1.25 0.375 0
1.375 0.375 0
1.375 0.25 0
1.5 0.25 0
1.375 0.375 0
1.5 0.375 0
1.375 0.375 0
1.5 0.375 0
1.375 0.5 0
1.5 0.5 0
1.25 0.375 0
1.375 0.375 0
1.25 0.5 0
1.375 0.5 0
1 0.25 0
1.125 0.25 0
1 0.375 0
1.125 0.375 0
1.125 0.25 0
1.25 0.25 0
1.125 0.375 0
1.25 0.375 0
1.125 0.375 0
1.25 0.375 0
1.125 0.5 0
1.25 0.5 0
1 0.375 0
1.125 0.375 0
1 0.5 0
1.125 0.5 0
1.5 0 0
1.625 0 0
1.5 0.125 0
1.625 0.125 0
1.625 0 0
1.75 0 0
1.625 0.125 0
1.75 0.125 0
1.625 0.125 0
1.75 0.125 0
1.625 0.25 0
1.75 0.25 0
1.5 0.125 0
1.625 0.125 0
1.5 0.25 0
1.625 0.25 0
1.75 0 0
1.875 0 0
1.75 0.125 0
1.875 0.125 0
1.875 0 0
2 0 0
1.875 0.125 0
2 0.125 0
1.875 0.125 0
2 0.125 0
1.875 0.25 0
2 0.25 0
1.75 0.125 0
1.875 0.125 0
1.75 0.25 0
1.875 0.25 0
1.75 0.25 0
1.875 0.25 0
1.75 0.375 0
1.875 0.375 0
1.875 0.25 0
2 0.25 0
1.875 0.375 0
2 0.375 0
1.875 0.375 0
2 0.375 0
1.875 0.5 0
2 0.5 0
1.75 0.375 0
1.875 0.375 0
1.75 0.5 0
1.875 0.5 0
1.5 0.25 0
1.625 0.25 0
1.5 0.375 0
1.625 0.375 0
1.625 0.25 0
1.75 0.25 0
1.625 0.375 0
1.75 0.375 0
1.625 0.375 0
1.75 0.375 0
1.625 0.5 0
1.75 0.5 0
1.5 0.375 0
1.625 0.375 0
1.5 0.5 0
1.625 0.5 0
1.5 0.5 0
1.625 0.5 0
1.5 0.625 0
1.625 0.625 0
1.625 0.5 0
1.75 0.5 0
1.625 0.625 0
1.75 0.625 0
1.625 0.625 0
1.75 0.625 0
1.625 0.75 0
1.75 0.75 0
1.5 0.625 0
1.625 0.625 0
1.5 0.75 0
1.625 0.75 0
1.75 0.5 0
1.875 0.5 0
1.75 0.625 0
1.875 0.625 0
1.875 0.5 0
2 0.5 0
1.875 0.625 0
2 0.625 0
1.875 0.625 0
2 0.625 0
1.875 0.75 0
2 0.75 0
1.75 0.625 0
1.875 0.625 0
1.75 0.75 0
1.875 0.75 0
1.75 0.75 0
1.875 0.75 0
1.75 0.875 0
1.875 0.875 0
1.875 0.75 0
2 0.75 0
1.875 0.875 0
2 0.875 0
1.875 0.875 0
2 0.875 0
1.875 1 0
2 1 0
1.75 0.875 0
1.875 0.875 0
1.75 1 0
1.875 1 0
1.5 0.75 0
1.625 0.75 0
1.5 0.875 0
1.625 0.875 0
1.625 0.75 0
1.75 0.75 0
1.625 0.875 0
1.75 0.875 0
1.625 0.875 0
1.75 0.875 0
1.625 1 0
1.75 1 0
1.5 0.875 0
1.625 0.875 0
1.5 1 0
1.625 1 0
1 0.5 0
1.125 0.5 0
1 0.625 0
1.125 0.625 0
1.125 0.5 0
1.25 0.5 0
1.125 0.625 0
1.25 0.625 0
1.125 0.625 0
1.25 0.625 0
1.125 0.75 0
1.25 0.75 0
1 0.625 0
1.125 0.625 0
1 0.75 0
1.125 0.75 0
1.25 0.5 0
1.375 0.5 0
1.25 0.625 0
1.375 0.625 0
1.375 0.5 0
1.5 0.5 0
1.375 0.625 0
1.5 0.625 0
1.375 0.625 0
1.5 0.625 0
1.375 0.75 0
1.5 0.75 0
1.25 0.625 0
1.375 0.625 0
1.25 0.75 0
1.375 0.75 0
1.25 0.75 0
1.375 0.75 0
1.25 0.875 0
1.375 0.875 0
1.375 0.75 0
1.5 0.75 0
1.375 0.875 0
1.5 0.875 0
1.375 0.875 0
1.5 0.875 0
1.375 1 0
1.5 1 0
1.25 0.875 0
1.375 0.875 0
1.25 1 0
1.375 1 0
1 0.75 0
1.125 0.75 0
1 0.875 0
1.125 0.875 0
1.125 0.75 0
1.25 0.75 0
1.125 0.875 0
1.25 0.875 0
1.125 0.875 0
1.25 0.875 0
1.125 1 0
1.25 1 0
1 0.875 0
1.125 0.875 0
1 1 0
1.125 1 0
2 0 0
2.125 0 0
2 0.125 0
2.125 0.125 0
2.125 0 0
2.25 0 0
2.125 0.125 0
2.25 0.125 0
2.125 0.125 0
2.25 0.125 0
2.125 0.25 0
2.25 0.25 0
2 0.125 0
2.125 0.125 0
2 0.25 0
2.125 0.25 0
2.25 0 0
2.375 0 0
2.25 0.125 0
2.375 0.125 0
2.375 0 0
2.5 0 0
2.375 0.125 0
2.5 0.125 0
2.375 0.125 0
2.5 0.125 0
2.375 0.25 0
2.5 0.25 0
2.25 0.125 0
2.375 0.125 0
2.25 0.25 0
2.375 0.25 0
2.25 0.25 0
2.375 0.25 0
2.25 0.375 0
2.375 0.375 0
2.375 0.25 0
2.5 0.25 0
2.375 0.375 0
2.5 0.375 0
2.375 0.375 0
2.5 0.375 0
2.375 0.5 0
2.5 0.5 0
2.25 0.375 0
2.375 0.375 0
2.25 0.5 0
2.375 0.5 0
2 0.25 0
2.125 0.25 0
2 0.375 0
2.125 0.375 0
2.125 0.25 0
2.25 0.25 0
2.125 0.375 0
2.25 0.375 0
2.125 0.375 0
2.25 0.375 0
2.125 0.5 0
2.25 0.5 0
2 0.375 0
2.125 0.375 0
2 0.5 0
2.125 0.5 0
2.5 0 0
2.625 0 0
2.5 0.125 0
2.625 0.125 0
2.625 0 0
2.75 0 0
2.625 0.125 0
2.75 0.125 0
2.625 0.125 0
2.75 0.125 0
2.625 0.25 0
2.75 0.25 0
2.5 0.125 0
2.625 0.125 0
2.5 0.25 0
2.625 0.25 0
2.75 0 0
2.875 0 0
2.75 0.125 0
2.875 0.125 0
2.875 0 0
3 0 0
2.875 0.125 0
3 0.125 0
2.875 0.125 0
3 0.125 0
2.875 0.25 0
3 0.25 0
2.75 0.125 0
2.875 0.125 0
2.75 0.25 0
2.875 0.25 0
2.75 0.25 0
2.875 0.25 0
2.75 0.375 0
2.875 0.375 0
2.875 0.25 0
3 0.25 0
2.875 0.375 0
3 0.375 0
2.875 0.375 0
3 0.375 0
2.875 0.5 0
3 0.5 0
2.75 0.375 0
2.875 0.375 0
2.75 0.5 0
2.875 0.5 0
2.5 0.25 0
2.625 0.25 0
2.5 0.375 0
2.625 0.375 0
2.625 0.25 0
2.75 0.25 0
2.625 0.375 0
2.75 0.375 0
2.625 0.375 0
2.75 0.375 0
2.625 0.5 0
2.75 0.5 0
2.5 0.375 0
2.625 0.375 0
2.5 0.5 0
2.625 0.5 0
2.5 0.5 0
2.625 0.5 0
2.5 0.625 0
2.625 0.625 0
2.625 0.5 0
2.75 0.5 0
2.625 0.625 0
2.75 0.625 0
2.625 0.625 0
2.75 0.625 0
2.625 0.75 0
2.75 0.75 0
2.5 0.625 0
2.625 0.625 0
2.5 0.75 0
2.625 0.75 0
2.75 0.5 0
2.875 0.5 0
2.75 0.625 0
2.875 0.625 0
2.875 0.5 0
3 0.5 0
2.875 0.625 0
3 0.625 0
2.875 0.625 0
3 0.625 0
2.875 0.75 0
3 0.75 0
2.75 0.625 0
2.875 0.625 0
2.75 0.75 0
2.875 0.75 0
2.75 0.75 0
2.875 0.75 0
2.75 0.875 0
2.875 0.875 0
2.875 0.75 0
3 0.75 0
2.875 0.875 0
3 0.875 0
2.875 0.875 0
3 0.875 0
2.875 1 0
3 1 0
2.75 0.875 0
2.875 0.875 0
2.75 1 0
2.875 1 0
2.5 0.75 0
2.625 0.75 0
2.5 0.875 0
2.625 0.875 0
2.625 0.75 0
2.75 0.75 0
2.625 0.875 0
2.75 0.875 0
2.625 0.875 0
2.75 0.875 0
2.625 1 0
2.75 1 0
2.5 0.875 0
2.625 0.875 0
2.5 1 0
2.625 1 0
2 0.5 0
2.125 0.5 0
2 0.625 0
2.125 0.625 0
2.125 0.5 0
2.25 0.5 0
2.125 0.625 0
2.25 0.625 0
2.125 0.625 0
2.25 0.625 0
2.125 0.75 0
2.25 0.75 0
2 0.625 0
2.125 0.625 0
2 0.75 0
2.125 0.75 0
2.25 0.5 0
2.375 0.5 0
2.25 0.625 0
2.375 0.625 0
2.375 0.5 0
2.5 0.5 0
2.375 0.625 0
2.5 0.625 0
2.375 0.625 0
2.5 0.625 0
2.375 0.75 0
2.5 0.75 0
2.25 0.625 0
2.375 0.625 0
2.25 0.75 0
2.375 0.75 0
2.25 0.75 0
2.375 0.75 0
2.25 0.875 0
2.375 0.875 0
2.375 0.75 0
2.5 0.75 0
2.375 0.875 0
2.5 0.875 0
2.375 0.875 0
2.5 0.875 0
2.375 1 0
2.5 1 0
2.25 0.875 0
2.375 0.875 0
2.25 1 0
2.375 1 0
2 0.75 0
2.125 0.75 0
2 0.875 0
2.125 0.875 0
2.125 0.75 0
2.25 0.75 0
2.125 0.875 0
2.25 0.875 0
2.125 0.875 0
2.25 0.875 0
2.125 1 0
2.25 1 0
2 0.875 0
2.125 0.875 0
2 1 0
2.125 1 0
3 0 0
3.125 0 0
3 0.125 0
3.125 0.125 0
3.125 0 0
3.25 0 0
3.125 0.125 0
3.25 0.125 0
3.125 0.125 0
3.25 0.125 0
3.125 0.25 0
3.25 0.25 0
3 0.125 0
3.125 0.125 0
3 0.25 0
3.125 0.25 0
3.25 0 0
3.375 0 0
3.25 0.125 0
3.375 0.125 0
3.375 0 0
3.5 0 0
3.375 0.125 0
3.5 0.125 0
3.375 0.125 0
3.5 0.125 0
3.375 0.25 0
3.5 0.25 0
3.25 0.125 0
3.375 0.125 0
3.25 0.25 0
3.375 0.25 0
3.25 0.25 0
3.375 0.25 0
3.25 0.375 0
3.375 0.375 0
3.375 0.25 0
3.5 0.25 0
3.375 0.375 0
3.5 0.375 0
3.375 0.375 0
3.5 0.375 0
3.375 0.5 0
3.5 0.5 0
3.25 0.375 0
3.375 0.375 0
3.25 0.5 0
[...]
<CellData Scalars="attribute">
<DataArray type="Int32" Name="attribute" format="ascii">
1
1
1
1
1
1
1
1
1
1
1
1
1
1
1
1
1
1
1
1
1
1
1
1
1
1
1
1
1
1
1
1
1
1
1
1
1
1
1
1
1
1
1
1
1
1
1
1
1
1
1
1
1
1
1
1
1
1
1
1
1
1
1
1
1
1
1
1
1
1
1
1
1
1
1
1
1
1
1
1
1
1
1
1
1
1
1
1
1
1
1
1
1
1
1
1
1
1
1
1
1
1
1
1
1
1
1
1
1
1
1
1
1
1
1
1
1
1
1
1
1
1
1
1
1
1
1
1
1
1
1
1
1
1
1
1
1
1
1
1
1
1
1
1
1
1
1
1
1
1
1
1
1
1
1
1
1
1
1
1
1
1
1
1
1
1
1
1
1
1
1
1
1
1
1
1
1
1
1
1
1
1
1
1
1
1
1
1
1
1
1
1
1
1
1
1
1
1
1
1
1
1
1
1
1
1
1
1
1
1
1
1
1
1
1
1
1
1
1
1
1
1
1
1
1
1
1
1
1
1
1
1
1
1
1
1
1
1
1
1
1
1
1
1
1
1
1
1
1
1
1
1
1
1
1
1
2
2
2
2
2
2
2
2
2
2
2
2
2
2
2
2
2
2
2
2
2
2
2
2
2
2
2
2
2
2
2
2
2
2
2
2
2
2
2
2
2
2
2
2
2
2
2
2
2
2
2
2
2
2
2
2
2
2
2
2
2
2
2
2
2
2
2
2
2
2
2
2
2
2
2
2
2
2
2
2
2
2
2
2
2
2
2
2
2
2
2
2
2
2
2
2
2
2
2
2
2
2
2
2
2
2
2
2
2
2
2
2
2
2
2
2
2
2
2
2
2
2
2
2
2
2
2
2
2
2
2
2
2
2
2
2
2
2
2
2
2
2
2
2
2
2
2
2
2
2
2
2
2
2
2
2
2
2
2
2
2
2
2
2
2
2
2
2
2
2
2
2
2
2
2
2
2
2
2
2
2
2
2
2
2
2
2
2
2
2
2
2
2
2
2
2
2
2
2
2
2
2
2
2
2
2
2
2
2
2
2
2
2
2
2
2
2
2
2
2
2
2
2
2
2
2
2
2
2
2
2
2
2
2
2
2
2
2
2
2
2
2
2
2
2
2
2
2
2
2
2
2
2
2
2
2
</DataArray>
</CellData>
<PointData >
<DataArray type="Float64" Name="Pressure" NumberOfComponents="1" format="ascii" >
-0.000739517
-1.40933e-06
-0.00121016
-2.333e-06
-1.40933e-06
1.05968e-10
-2.333e-06
1.83517e-10
-2.333e-06
1.83517e-10
-1.56626e-06
1.24624e-10
-0.00121016
-2.333e-06
-0.00080679
-1.56626e-06
1.05968e-10
-5.02272e-15
1.83517e-10
-8.96846e-15
-5.02272e-15
2.41113e-19
-8.96846e-15
4.46373e-19
-8.96846e-15
4.46373e-19
-6.24493e-15
3.19247e-19
1.83517e-10
-8.96846e-15
1.24624e-10
-6.24493e-15
1.24624e-10
-6.24493e-15
6.38662e-11
-3.19112e-15
-6.24493e-15
3.19247e-19
-3.19112e-15
1.63305e-19
-3.19112e-15
1.63305e-19
-1.05681e-16
5.18197e-21
6.38662e-11
-3.19112e-15
2.25314e-12
-1.05681e-16
-0.00080679
-1.56626e-06
-0.00040341
-7.95337e-07
-1.56626e-06
1.24624e-10
-7.95337e-07
6.38662e-11
-7.95337e-07
6.38662e-11
-1.76169e-08
2.25314e-12
-0.00040341
-7.95337e-07
-2.16749e-08
-1.76169e-08
2.41113e-19
-5.99676e-24
4.46373e-19
-1.15068e-23
-5.99676e-24
2.59225e-28
-1.15068e-23
5.00121e-28
-1.15068e-23
5.00121e-28
-8.52547e-24
3.75823e-28
4.46373e-19
-1.15068e-23
3.19247e-19
-8.52547e-24
2.59225e-28
-2.72606e-33
5.00121e-28
-5.80181e-33
-2.72606e-33
1.81663e-37
-5.80181e-33
3.55699e-37
-5.80181e-33
3.55699e-37
-4.69274e-33
2.75455e-37
5.00121e-28
-5.80181e-33
3.75823e-28
-4.69274e-33
3.75823e-28
-4.69274e-33
1.95389e-28
-2.47453e-33
-4.69274e-33
2.75455e-37
-2.47453e-33
1.46285e-37
-2.47453e-33
1.46285e-37
-7.13728e-35
3.72474e-39
1.95389e-28
-2.47453e-33
5.60502e-30
-7.13728e-35
3.19247e-19
-8.52547e-24
1.63305e-19
-4.3879e-24
-8.52547e-24
3.75823e-28
-4.3879e-24
1.95389e-28
-4.3879e-24
1.95389e-28
-1.34059e-25
5.60502e-30
1.63305e-19
-4.3879e-24
5.18197e-21
-1.34059e-25
5.18197e-21
-1.34059e-25
-1.55147e-19
4.17896e-24
-1.34059e-25
5.60502e-30
4.17896e-24
-1.86838e-28
4.17896e-24
-1.86838e-28
8.4949e-24
-3.74829e-28
-1.55147e-19
4.17896e-24
-3.17746e-19
8.4949e-24
5.60502e-30
-7.13728e-35
-1.86838e-28
2.3664e-33
-7.13728e-35
3.72474e-39
2.3664e-33
-1.40763e-37
2.3664e-33
-1.40763e-37
4.68006e-33
-2.75009e-37
-1.86838e-28
2.3664e-33
-3.74829e-28
4.68006e-33
-3.74829e-28
4.68006e-33
-5.08103e-28
5.89022e-33
4.68006e-33
-2.75009e-37
5.89022e-33
-3.60676e-37
5.89022e-33
-3.60676e-37
2.78559e-33
-1.8518e-37
-5.08103e-28
5.89022e-33
-2.6506e-28
2.78559e-33
-3.17746e-19
8.4949e-24
-4.54332e-19
1.17028e-23
8.4949e-24
-3.74829e-28
1.17028e-23
-5.08103e-28
1.17028e-23
-5.08103e-28
6.14236e-24
-2.6506e-28
-4.54332e-19
1.17028e-23
-2.47455e-19
6.14236e-24
-2.16749e-08
-1.76169e-08
0.000403375
7.66906e-07
-1.76169e-08
2.25314e-12
7.66906e-07
-6.02379e-11
7.66906e-07
-6.02379e-11
1.55823e-06
-1.23627e-10
0.000403375
7.66906e-07
0.00080678
1.55823e-06
2.25314e-12
-1.05681e-16
-6.02379e-11
3.02265e-15
-1.05681e-16
5.18197e-21
3.02265e-15
-1.55147e-19
3.02265e-15
-1.55147e-19
6.20575e-15
-3.17746e-19
-6.02379e-11
3.02265e-15
-1.23627e-10
6.20575e-15
-1.23627e-10
6.20575e-15
-1.86915e-10
9.13544e-15
6.20575e-15
-3.17746e-19
9.13544e-15
-4.54332e-19
9.13544e-15
-4.54332e-19
5.16485e-15
-2.47455e-19
-1.86915e-10
9.13544e-15
-1.09449e-10
5.16485e-15
0.00080678
1.55823e-06
0.0012102
2.35926e-06
1.55823e-06
-1.23627e-10
2.35926e-06
-1.86915e-10
2.35926e-06
-1.86915e-10
1.43715e-06
-1.09449e-10
0.0012102
2.35926e-06
0.000739551
1.43715e-06
1.81663e-37
3.32718e-43
3.55699e-37
1.31624e-43
3.32718e-43
1.00254e-46
1.31624e-43
1.94539e-46
1.31624e-43
1.94539e-46
-2.00956e-43
1.51821e-46
3.55699e-37
1.31624e-43
2.75455e-37
-2.00956e-43
1.00254e-46
1.11367e-51
1.94539e-46
1.88534e-51
1.11367e-51
4.65694e-56
1.88534e-51
8.87388e-56
1.88534e-51
8.87388e-56
1.30171e-51
6.88765e-56
1.94539e-46
1.88534e-51
1.51821e-46
1.30171e-51
1.51821e-46
1.30171e-51
8.18238e-47
6.78563e-52
1.30171e-51
6.88765e-56
6.78563e-52
3.73453e-56
6.78563e-52
3.73453e-56
1.14152e-53
7.10304e-58
8.18238e-47
6.78563e-52
1.81268e-48
1.14152e-53
2.75455e-37
-2.00956e-43
1.46285e-37
-1.38006e-43
-2.00956e-43
1.51821e-46
-1.38006e-43
8.18238e-47
-1.38006e-43
8.18238e-47
-7.97288e-45
1.81268e-48
1.46285e-37
-1.38006e-43
3.72474e-39
-7.97288e-45
4.65694e-56
7.26456e-61
8.87388e-56
1.30234e-60
7.26456e-61
1.78981e-65
1.30234e-60
3.36155e-65
1.30234e-60
3.36155e-65
9.56898e-61
2.59122e-65
8.87388e-56
1.30234e-60
6.88765e-56
9.56898e-61
1.78981e-65
2.93933e-70
3.36155e-65
5.36712e-70
2.93933e-70
5.54486e-75
5.36712e-70
1.03287e-74
5.36712e-70
1.03287e-74
4.03188e-70
7.93146e-75
3.36155e-65
5.36712e-70
2.59122e-65
4.03188e-70
2.59122e-65
4.03188e-70
1.40691e-65
2.1677e-70
4.03188e-70
7.93146e-75
2.1677e-70
4.30733e-75
2.1677e-70
4.30733e-75
3.11777e-72
6.03336e-77
1.40691e-65
2.1677e-70
2.29174e-67
3.11777e-72
6.88765e-56
9.56898e-61
3.73453e-56
5.09527e-61
9.56898e-61
2.59122e-65
5.09527e-61
1.40691e-65
5.09527e-61
1.40691e-65
8.18837e-63
2.29174e-67
3.73453e-56
5.09527e-61
7.10304e-58
8.18837e-63
7.10304e-58
8.18837e-63
-3.63229e-56
-4.97941e-61
8.18837e-63
2.29174e-67
-4.97941e-61
-1.37415e-65
-4.97941e-61
-1.37415e-65
-9.57209e-61
-2.59032e-65
-3.63229e-56
-4.97941e-61
-6.88331e-56
-9.57209e-61
2.29174e-67
3.11777e-72
-1.37415e-65
-2.12361e-70
3.11777e-72
6.03336e-77
-2.12361e-70
-4.22149e-75
-2.12361e-70
-4.22149e-75
-4.03251e-70
-7.93005e-75
-1.37415e-65
-2.12361e-70
-2.59032e-65
-4.03251e-70
-2.59032e-65
-4.03251e-70
-3.39247e-65
-5.41359e-70
-4.03251e-70
-7.93005e-75
-5.41359e-70
-1.04116e-74
-5.41359e-70
-1.04116e-74
-2.97244e-70
-5.60369e-75
-3.39247e-65
-5.41359e-70
-1.81172e-65
-2.97244e-70
-6.88331e-56
-9.57209e-61
-8.96761e-56
-1.31525e-60
-9.57209e-61
-2.59032e-65
-1.31525e-60
-3.39247e-65
-1.31525e-60
-3.39247e-65
-7.35774e-61
-1.81172e-65
-8.96761e-56
-1.31525e-60
-4.72308e-56
-7.35774e-61
3.72474e-39
-7.97288e-45
-1.40763e-37
1.2552e-43
-7.97288e-45
1.81268e-48
1.2552e-43
-7.91853e-47
1.2552e-43
-7.91853e-47
1.96932e-43
-1.51664e-46
-1.40763e-37
1.2552e-43
-2.75009e-37
1.96932e-43
1.81268e-48
1.14152e-53
-7.91853e-47
-6.62486e-52
1.14152e-53
7.10304e-58
-6.62486e-52
-3.63229e-56
-6.62486e-52
-3.63229e-56
-1.30291e-51
-6.88331e-56
-7.91853e-47
-6.62486e-52
-1.51664e-46
-1.30291e-51
-1.51664e-46
-1.30291e-51
-1.96904e-46
-1.90661e-51
-1.30291e-51
-6.88331e-56
-1.90661e-51
-8.96761e-56
-1.90661e-51
-8.96761e-56
-1.12964e-51
-4.72308e-56
-1.96904e-46
-1.90661e-51
-1.01916e-46
-1.12964e-51
-2.75009e-37
1.96932e-43
-3.60676e-37
-1.3244e-43
1.96932e-43
-1.51664e-46
-1.3244e-43
-1.96904e-46
-1.3244e-43
-1.96904e-46
-3.36059e-43
-1.01916e-46
-3.60676e-37
-1.3244e-43
-1.8518e-37
-3.36059e-43
5.54486e-75
8.64887e-80
1.03287e-74
1.59088e-79
8.64887e-80
1.37554e-84
1.59088e-79
2.55184e-84
1.59088e-79
2.55184e-84
1.20776e-79
1.95725e-84
1.03287e-74
1.59088e-79
7.93146e-75
1.20776e-79
1.37554e-84
1.96893e-89
2.55184e-84
3.63253e-89
1.96893e-89
2.75232e-94
3.63253e-89
5.09593e-94
3.63253e-89
5.09593e-94
2.77308e-89
3.90913e-94
2.55184e-84
3.63253e-89
1.95725e-84
2.77308e-89
1.95725e-84
2.77308e-89
1.06316e-84
1.50307e-89
2.77308e-89
3.90913e-94
1.50307e-89
2.12407e-94
1.50307e-89
2.12407e-94
1.67148e-91
2.2316e-96
1.06316e-84
1.50307e-89
1.28715e-86
1.67148e-91
7.93146e-75
1.20776e-79
4.30733e-75
6.52745e-80
1.20776e-79
1.95725e-84
6.52745e-80
1.06316e-84
6.52745e-80
1.06316e-84
8.27818e-82
1.28715e-86
4.30733e-75
6.52745e-80
6.03336e-77
8.27818e-82
2.75232e-94
3.5858e-99
5.09593e-94
6.623e-99
3.5858e-99
4.49755e-104
6.623e-99
8.31879e-104
6.623e-99
8.31879e-104
5.07175e-99
6.38541e-104
5.09593e-94
6.623e-99
3.90913e-94
5.07175e-99
4.49755e-104
5.3397e-109
8.31879e-104
9.86555e-109
5.3397e-109
6.08163e-114
9.86555e-109
1.1242e-113
9.86555e-109
1.1242e-113
7.56885e-109
8.63527e-114
8.31879e-104
9.86555e-109
6.38541e-104
7.56885e-109
6.38541e-104
7.56885e-109
3.47062e-104
4.11244e-109
7.56885e-109
8.63527e-114
4.11244e-109
4.69448e-114
4.11244e-109
4.69448e-114
3.4967e-111
3.741e-116
3.47062e-104
4.11244e-109
3.17283e-106
3.4967e-111
3.90913e-94
5.07175e-99
2.12407e-94
2.75335e-99
5.07175e-99
6.38541e-104
2.75335e-99
3.47062e-104
2.75335e-99
3.47062e-104
2.67855e-101
3.17283e-106
2.12407e-94
2.75335e-99
2.2316e-96
2.67855e-101
2.2316e-96
2.67855e-101
-2.09245e-94
-2.71547e-99
2.67855e-101
3.17283e-106
-2.71547e-99
-3.4257e-104
-2.71547e-99
-3.4257e-104
-5.07182e-99
-6.38523e-104
-2.09245e-94
-2.71547e-99
-3.90896e-94
-5.07182e-99
3.17283e-106
3.4967e-111
-3.4257e-104
-4.06298e-109
3.4967e-111
3.741e-116
-4.06298e-109
-4.64152e-114
-4.06298e-109
-4.64152e-114
-7.56884e-109
-8.63509e-114
-3.4257e-104
-4.06298e-109
-6.38523e-104
-7.56884e-109
-6.38523e-104
-7.56884e-109
-8.36323e-104
-9.91484e-109
-7.56884e-109
-8.63509e-114
-9.91484e-109
-1.12944e-113
-9.91484e-109
-1.12944e-113
-5.3746e-109
-6.11874e-114
-8.36323e-104
-9.91484e-109
-4.52903e-104
-5.3746e-109
-3.90896e-94
-5.07182e-99
-5.12713e-94
-6.66097e-99
-5.07182e-99
-6.38523e-104
-6.66097e-99
-8.36323e-104
-6.66097e-99
-8.36323e-104
-3.61268e-99
-4.52903e-104
-5.12713e-94
-6.66097e-99
-2.77443e-94
-3.61268e-99
6.03336e-77
8.27818e-82
-4.22149e-75
-6.41041e-80
8.27818e-82
1.28715e-86
-6.41041e-80
-1.0449e-84
-6.41041e-80
-1.0449e-84
-1.20786e-79
-1.95708e-84
-4.22149e-75
-6.41041e-80
-7.93005e-75
-1.20786e-79
1.28715e-86
1.67148e-91
-1.0449e-84
-1.47944e-89
1.67148e-91
2.2316e-96
-1.47944e-89
-2.09245e-94
-1.47944e-89
-2.09245e-94
-2.77318e-89
-3.90896e-94
-1.0449e-84
-1.47944e-89
-1.95708e-84
-2.77318e-89
-1.95708e-84
-2.77318e-89
-2.56973e-84
-3.65643e-89
-2.77318e-89
-3.90896e-94
-3.65643e-89
-5.12713e-94
-3.65643e-89
-5.12713e-94
-1.98586e-89
-2.77443e-94
-2.56973e-84
-3.65643e-89
-1.38823e-84
-1.98586e-89
-7.93005e-75
-1.20786e-79
-1.04116e-74
-1.60288e-79
-1.20786e-79
-1.95708e-84
-1.60288e-79
-2.56973e-84
-1.60288e-79
-2.56973e-84
-8.73405e-80
-1.38823e-84
-1.04116e-74
-1.60288e-79
-5.60369e-75
-8.73405e-80
6.08163e-114
6.60746e-119
1.1242e-113
1.22073e-118
6.60746e-119
6.8887e-124
1.22073e-118
1.27284e-123
1.22073e-118
1.27284e-123
9.37643e-119
9.78318e-124
1.1242e-113
1.22073e-118
8.63527e-114
9.37643e-119
6.8887e-124
6.88191e-129
1.27284e-123
1.27118e-128
6.88191e-129
6.60749e-134
1.27118e-128
1.22045e-133
1.27118e-128
1.22045e-133
9.77166e-129
9.38538e-134
1.27284e-123
1.27118e-128
9.78318e-124
9.77166e-129
9.78318e-124
9.77166e-129
5.31915e-124
5.31257e-129
9.77166e-129
9.38538e-134
5.31257e-129
5.10304e-134
5.31257e-129
5.10304e-134
3.44946e-131
3.09982e-136
5.31915e-124
5.31257e-129
3.69926e-126
3.44946e-131
8.63527e-114
9.37643e-119
4.69448e-114
5.09674e-119
9.37643e-119
9.78318e-124
5.09674e-119
5.31915e-124
5.09674e-119
5.31915e-124
3.78679e-121
3.69926e-126
4.69448e-114
5.09674e-119
3.741e-116
3.78679e-121
6.60749e-134
6.09764e-139
1.22045e-133
1.12604e-138
6.09764e-139
5.418e-144
1.12604e-138
1.00043e-143
1.12604e-138
1.00043e-143
8.66068e-139
7.69658e-144
1.22045e-133
1.12604e-138
9.38538e-134
8.66068e-139
5.418e-144
4.63795e-149
1.00043e-143
8.56255e-149
4.63795e-149
3.8295e-154
8.56255e-149
7.06919e-154
8.56255e-149
7.06919e-154
6.58835e-149
5.44025e-154
1.00043e-143
8.56255e-149
7.69658e-144
6.58835e-149
7.69658e-144
6.58835e-149
4.1847e-144
3.58199e-149
6.58835e-149
5.44025e-154
3.58199e-149
2.95773e-154
3.58199e-149
2.95773e-154
1.77785e-151
1.3732e-156
4.1847e-144
3.58199e-149
2.22171e-146
1.77785e-151
9.38538e-134
8.66068e-139
5.10304e-134
4.70881e-139
8.66068e-139
7.69658e-144
4.70881e-139
4.1847e-144
4.70881e-139
4.1847e-144
2.67265e-141
2.22171e-146
5.10304e-134
4.70881e-139
3.09982e-136
2.67265e-141
3.09982e-136
2.67265e-141
-5.05915e-134
-4.67096e-139
2.67265e-141
2.22171e-146
-4.67096e-139
-4.15323e-144
-4.67096e-139
-4.15323e-144
-8.66046e-139
-7.69636e-144
-5.05915e-134
-4.67096e-139
-9.38514e-134
-8.66046e-139
2.22171e-146
1.77785e-151
-4.15323e-144
-3.5568e-149
1.77785e-151
1.3732e-156
-3.5568e-149
-2.93826e-154
-3.5568e-149
-2.93826e-154
-6.58815e-149
-5.44008e-154
-4.15323e-144
-3.5568e-149
-7.69636e-144
-6.58815e-149
-7.69636e-144
-6.58815e-149
-1.00352e-143
-8.58726e-149
-6.58815e-149
-5.44008e-154
-8.58726e-149
-7.08823e-154
-8.58726e-149
-7.08823e-154
-4.65545e-149
-3.84299e-154
-1.00352e-143
-8.58726e-149
-5.43989e-144
-4.65545e-149
-9.38514e-134
-8.66046e-139
-1.22477e-133
-1.12976e-138
-8.66046e-139
-7.69636e-144
-1.12976e-138
-1.00352e-143
-1.12976e-138
-1.00352e-143
-6.12404e-139
-5.43989e-144
-1.22477e-133
-1.12976e-138
-6.63813e-134
-6.12404e-139
3.741e-116
3.78679e-121
-4.64152e-114
-5.04316e-119
3.78679e-121
3.69926e-126
-5.04316e-119
-5.26678e-124
-5.04316e-119
-5.26678e-124
-9.37632e-119
-9.78297e-124
-4.64152e-114
-5.04316e-119
-8.63509e-114
-9.37632e-119
3.69926e-126
3.44946e-131
-5.26678e-124
-5.26375e-129
3.44946e-131
3.09982e-136
-5.26375e-129
-5.05915e-134
-5.26375e-129
-5.05915e-134
-9.77148e-129
-9.38514e-134
-5.26678e-124
-5.26375e-129
-9.78297e-124
-9.77148e-129
-9.78297e-124
-9.77148e-129
-1.27801e-123
-1.27601e-128
-9.77148e-129
-9.38514e-134
-1.27601e-128
-1.22477e-133
-1.27601e-128
-1.22477e-133
-6.91609e-129
-6.63813e-134
-1.27801e-123
-1.27601e-128
-6.92534e-124
-6.91609e-129
-8.63509e-114
-9.37632e-119
-1.12944e-113
-1.22604e-118
-9.37632e-119
-9.78297e-124
-1.22604e-118
-1.27801e-123
-1.22604e-118
-1.27801e-123
-6.64511e-119
-6.92534e-124
-1.12944e-113
-1.22604e-118
-6.11874e-114
-6.64511e-119
3.8295e-154
3.05211e-159
7.06919e-154
5.63335e-159
3.05211e-159
2.35017e-164
5.63335e-159
4.33726e-164
5.63335e-159
4.33726e-164
4.33581e-159
3.33868e-164
7.06919e-154
5.63335e-159
5.44025e-154
4.33581e-159
2.35017e-164
1.74964e-169
4.33726e-164
3.22859e-169
1.74964e-169
1.26032e-174
3.22859e-169
2.3254e-174
3.22859e-169
2.3254e-174
2.48551e-169
1.79037e-174
4.33726e-164
3.22859e-169
3.33868e-164
2.48551e-169
3.33868e-164
2.48551e-169
1.815e-164
1.35112e-169
2.48551e-169
1.79037e-174
1.35112e-169
9.73197e-175
1.35112e-169
9.73197e-175
5.13439e-172
3.46053e-177
1.815e-164
1.35112e-169
7.3727e-167
5.13439e-172
5.44025e-154
4.33581e-159
2.95773e-154
2.35716e-159
4.33581e-159
3.33868e-164
2.35716e-159
1.815e-164
2.35716e-159
1.815e-164
1.02347e-161
7.3727e-167
2.95773e-154
2.35716e-159
1.3732e-156
1.02347e-161
1.26032e-174
8.7898e-180
2.3254e-174
1.62162e-179
8.7898e-180
5.93926e-185
1.62162e-179
1.09562e-184
1.62162e-179
1.09562e-184
1.24862e-179
8.4367e-185
2.3254e-174
1.62162e-179
1.79037e-174
1.24862e-179
5.93926e-185
3.89043e-190
1.09562e-184
7.17602e-190
3.89043e-190
2.47187e-195
7.17602e-190
4.55904e-195
7.17602e-190
4.55904e-195
5.52618e-190
3.51108e-195
1.09562e-184
7.17602e-190
8.4367e-185
5.52618e-190
8.4367e-185
5.52618e-190
4.58552e-185
3.00344e-190
5.52618e-190
3.51108e-195
3.00344e-190
1.90816e-195
3.00344e-190
1.90816e-195
8.75532e-193
5.20756e-198
4.58552e-185
3.00344e-190
1.42807e-187
8.75532e-193
1.79037e-174
1.24862e-179
9.73197e-175
6.78683e-180
1.24862e-179
8.4367e-185
6.78683e-180
4.58552e-185
6.78683e-180
4.58552e-185
2.25828e-182
1.42807e-187
9.73197e-175
6.78683e-180
3.46053e-177
2.25828e-182
3.46053e-177
2.25828e-182
-9.68284e-175
-6.75475e-180
2.25828e-182
1.42807e-187
-6.75475e-180
-4.56522e-185
-6.75475e-180
-4.56522e-185
-1.24857e-179
-8.43635e-185
-9.68284e-175
-6.75475e-180
-1.79029e-174
-1.24857e-179
1.42807e-187
8.75532e-193
-4.56522e-185
-2.99099e-190
8.75532e-193
5.20756e-198
-2.99099e-190
-1.90075e-195
-2.99099e-190
-1.90075e-195
-5.52594e-190
-3.51093e-195
-4.56522e-185
-2.99099e-190
-8.43635e-185
-5.52594e-190
-8.43635e-185
-5.52594e-190
-1.09757e-184
-7.18797e-190
-5.52594e-190
-3.51093e-195
-7.18797e-190
-4.56612e-195
-7.18797e-190
-4.56612e-195
-3.89889e-190
-2.47689e-195
-1.09757e-184
-7.18797e-190
-5.95309e-185
-3.89889e-190
-1.79029e-174
-1.24857e-179
-2.33016e-174
-1.62472e-179
-1.24857e-179
-8.43635e-185
-1.62472e-179
-1.09757e-184
-1.62472e-179
-1.09757e-184
-8.81174e-180
-5.95309e-185
-2.33016e-174
-1.62472e-179
-1.26369e-174
-8.81174e-180
1.3732e-156
1.02347e-161
-2.93826e-154
-2.34264e-159
1.02347e-161
7.3727e-167
-2.34264e-159
-1.80454e-164
-2.34264e-159
-1.80454e-164
-4.33566e-159
-3.33856e-164
-2.93826e-154
-2.34264e-159
-5.44008e-154
-4.33566e-159
7.3727e-167
5.13439e-172
-1.80454e-164
-1.34384e-169
5.13439e-172
3.46053e-177
-1.34384e-169
-9.68284e-175
-1.34384e-169
-9.68284e-175
-2.48541e-169
-1.79029e-174
-1.80454e-164
-1.34384e-169
-3.33856e-164
-2.48541e-169
-3.33856e-164
-2.48541e-169
-4.34745e-164
-3.23567e-169
-2.48541e-169
-1.79029e-174
-3.23567e-169
-2.33016e-174
-3.23567e-169
-2.33016e-174
-1.75465e-169
-1.26369e-174
-4.34745e-164
-3.23567e-169
-2.35738e-164
-1.75465e-169
-5.44008e-154
-4.33566e-159
-7.08823e-154
-5.64752e-159
-4.33566e-159
-3.33856e-164
-5.64752e-159
-4.34745e-164
-5.64752e-159
-4.34745e-164
-3.06214e-159
-2.35738e-164
-7.08823e-154
-5.64752e-159
-3.84299e-154
-3.06214e-159
2.47187e-195
1.52423e-200
4.55904e-195
2.811e-200
1.52423e-200
9.12622e-206
2.811e-200
1.68293e-205
2.811e-200
1.68293e-205
2.16497e-200
1.29622e-205
4.55904e-195
2.811e-200
3.51108e-195
2.16497e-200
9.12622e-206
5.30831e-211
1.68293e-205
9.78813e-211
5.30831e-211
3.00086e-216
9.78813e-211
5.53296e-216
9.78813e-211
5.53296e-216
7.53931e-211
4.26193e-216
1.68293e-205
9.78813e-211
1.29622e-205
7.53931e-211
1.29622e-205
7.53931e-211
7.04386e-206
4.09679e-211
7.53931e-211
4.26193e-216
4.09679e-211
2.3158e-216
4.09679e-211
2.3158e-216
9.18243e-214
4.86254e-219
7.04386e-206
4.09679e-211
1.68561e-208
9.18243e-214
3.51108e-195
2.16497e-200
1.90816e-195
1.17653e-200
2.16497e-200
1.29622e-205
1.17653e-200
7.04386e-206
1.17653e-200
7.04386e-206
3.00641e-203
1.68561e-208
1.90816e-195
1.17653e-200
5.20756e-198
3.00641e-203
3.00086e-216
1.64946e-221
5.53296e-216
3.04106e-221
1.64946e-221
8.81909e-227
3.04106e-221
1.62585e-226
3.04106e-221
1.62585e-226
2.34256e-221
1.25245e-226
5.53296e-216
3.04106e-221
4.26193e-216
2.34256e-221
8.81909e-227
4.58835e-232
1.62585e-226
8.45837e-232
4.58835e-232
2.32379e-237
8.45837e-232
4.28354e-237
8.45837e-232
4.28354e-237
6.51599e-232
3.29996e-237
1.62585e-226
8.45837e-232
1.25245e-226
6.51599e-232
1.25245e-226
6.51599e-232
6.80486e-227
3.54016e-232
6.51599e-232
3.29996e-237
3.54016e-232
1.79282e-237
3.54016e-232
1.79282e-237
6.11835e-235
2.90502e-240
6.80486e-227
3.54016e-232
1.25466e-229
6.11835e-235
4.26193e-216
2.34256e-221
2.3158e-216
1.27282e-221
2.34256e-221
1.25245e-226
1.27282e-221
6.80486e-227
1.27282e-221
6.80486e-227
2.50413e-224
1.25466e-229
2.3158e-216
1.27282e-221
4.86254e-219
2.50413e-224
4.86254e-219
2.50413e-224
-2.30886e-216
-1.26924e-221
2.50413e-224
1.25466e-229
-1.26924e-221
-6.78693e-227
-1.26924e-221
-6.78693e-227
-2.34244e-221
-1.25238e-226
-2.30886e-216
-1.26924e-221
-4.26172e-216
-2.34244e-221
1.25466e-229
6.11835e-235
-6.78693e-227
-3.53141e-232
6.11835e-235
2.90502e-240
-3.53141e-232
-1.78866e-237
-3.53141e-232
-1.78866e-237
-6.51565e-232
-3.29979e-237
-6.78693e-227
-3.53141e-232
-1.25238e-226
-6.51565e-232
-1.25238e-226
-6.51565e-232
-1.62751e-226
-8.46646e-232
-6.51565e-232
-3.29979e-237
-8.46646e-232
-4.28736e-237
-8.46646e-232
-4.28736e-237
-4.59407e-232
-2.32649e-237
-1.62751e-226
-8.46646e-232
-8.83088e-227
-4.59407e-232
-4.26172e-216
-2.34244e-221
-5.53947e-216