<VTKFile type="UnstructuredGrid" version="0.1" byte_order="LittleEndian">
<UnstructuredGrid>
<Piece NumberOfPoints="2048" NumberOfCells="512">
<Points>
<DataArray type="Float64" NumberOfComponents="3" format="ascii">
0 0 0
0.125 0 0
0 0.125 0
0.125 0.125 0
0.125 0 0
0.25 0 0
0.125 0.125 0
0.25 0.125 0
0.125 0.125 0
0.25 0.125 0
0.125 0.25 0
0.25 0.25 0
0 0.125 0
0.125 0.125 0
0 0.25 0
0.125 0.25 0
0.25 0 0
0.375 0 0
0.25 0.125 0
0.375 0.125 0
0.375 0 0
0.5 0 0
0.375 0.125 0
0.5 0.125 0
0.375 0.125 0
0.5 0.125 0
0.375 0.25 0
0.5 0.25 0
0.25 0.125 0
0.375 0.125 0
0.25 0.25 0
0.375 0.25 0
0.25 0.25 0
0.375 0.25 0
0.25 0.375 0
0.375 0.375 0
0.375 0.25 0
0.5 0.25 0
0.375 0.375 0
0.5 0.375 0
0.375 0.375 0
0.5 0.375 0
0.375 0.5 0
0.5 0.5 0
0.25 0.375 0
0.375 0.375 0
0.25 0.5 0
0.375 0.5 0
0 0.25 0
0.125 0.25 0
0 0.375 0
0.125 0.375 0
0.125 0.25 0
0.25 0.25 0
0.125 0.375 0
0.25 0.375 0
0.125 0.375 0
0.25 0.375 0
0.125 0.5 0
0.25 0.5 0
0 0.375 0
0.125 0.375 0
0 0.5 0
0.125 0.5 0
0.5 0 0
0.625 0 0
0.5 0.125 0
0.625 0.125 0
0.625 0 0
0.75 0 0
0.625 0.125 0
0.75 0.125 0
0.625 0.125 0
0.75 0.125 0
0.625 0.25 0
0.75 0.25 0
0.5 0.125 0
0.625 0.125 0
0.5 0.25 0
0.625 0.25 0
0.75 0 0
0.875 0 0
0.75 0.125 0
0.875 0.125 0
0.875 0 0
1 0 0
0.875 0.125 0
1 0.125 0
0.875 0.125 0
1 0.125 0
0.875 0.25 0
1 0.25 0
0.75 0.125 0
0.875 0.125 0
0.75 0.25 0
0.875 0.25 0
0.75 0.25 0
0.875 0.25 0
0.75 0.375 0
0.875 0.375 0
0.875 0.25 0
1 0.25 0
0.875 0.375 0
1 0.375 0
0.875 0.375 0
1 0.375 0
0.875 0.5 0
1 0.5 0
0.75 0.375 0
0.875 0.375 0
0.75 0.5 0
0.875 0.5 0
0.5 0.25 0
0.625 0.25 0
0.5 0.375 0
0.625 0.375 0
0.625 0.25 0
0.75 0.25 0
0.625 0.375 0
0.75 0.375 0
0.625 0.375 0
0.75 0.375 0
0.625 0.5 0
0.75 0.5 0
0.5 0.375 0
0.625 0.375 0
0.5 0.5 0
0.625 0.5 0
0.5 0.5 0
0.625 0.5 0
0.5 0.625 0
0.625 0.625 0
0.625 0.5 0
0.75 0.5 0
0.625 0.625 0
0.75 0.625 0
0.625 0.625 0
0.75 0.625 0
0.625 0.75 0
0.75 0.75 0
0.5 0.625 0
0.625 0.625 0
0.5 0.75 0
0.625 0.75 0
0.75 0.5 0
0.875 0.5 0
0.75 0.625 0
0.875 0.625 0
0.875 0.5 0
1 0.5 0
0.875 0.625 0
1 0.625 0
0.875 0.625 0
1 0.625 0
0.875 0.75 0
1 0.75 0
0.75 0.625 0
0.875 0.625 0
0.75 0.75 0
0.875 0.75 0
0.75 0.75 0
0.875 0.75 0
0.75 0.875 0
0.875 0.875 0
0.875 0.75 0
1 0.75 0
0.875 0.875 0
1 0.875 0
0.875 0.875 0
1 0.875 0
0.875 1 0
1 1 0
0.75 0.875 0
0.875 0.875 0
0.75 1 0
0.875 1 0
0.5 0.75 0
0.625 0.75 0
0.5 0.875 0
0.625 0.875 0
0.625 0.75 0
0.75 0.75 0
0.625 0.875 0
0.75 0.875 0
0.625 0.875 0
0.75 0.875 0
0.625 1 0
0.75 1 0
0.5 0.875 0
0.625 0.875 0
0.5 1 0
0.625 1 0
0 0.5 0
0.125 0.5 0
0 0.625 0
0.125 0.625 0
0.125 0.5 0
0.25 0.5 0
0.125 0.625 0
0.25 0.625 0
0.125 0.625 0
0.25 0.625 0
0.125 0.75 0
0.25 0.75 0
0 0.625 0
0.125 0.625 0
0 0.75 0
0.125 0.75 0
0.25 0.5 0
0.375 0.5 0
0.25 0.625 0
0.375 0.625 0
0.375 0.5 0
0.5 0.5 0
0.375 0.625 0
0.5 0.625 0
0.375 0.625 0
0.5 0.625 0
0.375 0.75 0
0.5 0.75 0
0.25 0.625 0
0.375 0.625 0
0.25 0.75 0
0.375 0.75 0
0.25 0.75 0
0.375 0.75 0
0.25 0.875 0
0.375 0.875 0
0.375 0.75 0
0.5 0.75 0
0.375 0.875 0
0.5 0.875 0
0.375 0.875 0
0.5 0.875 0
0.375 1 0
0.5 1 0
0.25 0.875 0
0.375 0.875 0
0.25 1 0
0.375 1 0
0 0.75 0
0.125 0.75 0
0 0.875 0
0.125 0.875 0
0.125 0.75 0
0.25 0.75 0
0.125 0.875 0
0.25 0.875 0
0.125 0.875 0
0.25 0.875 0
0.125 1 0
0.25 1 0
0 0.875 0
0.125 0.875 0
0 1 0
0.125 1 0
1 0 0
1.125 0 0
1 0.125 0
1.125 0.125 0
1.125 0 0
1.25 0 0
1.125 0.125 0
1.25 0.125 0
1.125 0.125 0
1.25 0.125 0
1.125 0.25 0
1.25 0.25 0
1 0.125 0
1.125 0.125 0
1 0.25 0
1.125 0.25 0
1.25 0 0
1.375 0 0
1.25 0.125 0
1.375 0.125 0
1.375 0 0
1.5 0 0
1.375 0.125 0
1.5 0.125 0
1.375 0.125 0
1.5 0.125 0
1.375 0.25 0
1.5 0.25 0
1.25 0.125 0
1.375 0.125 0
1.25 0.25 0
1.375 0.25 0
1.25 0.25 0
1.375 0.25 0
1.25 0.375 0
1.375 0.375 0
1.375 0.25 0
1.5 0.25 0
1.375 0.375 0
1.5 0.375 0
1.375 0.375 0
1.5 0.375 0
1.375 0.5 0
1.5 0.5 0
1.25 0.375 0
1.375 0.375 0
1.25 0.5 0
1.375 0.5 0
1 0.25 0
1.125 0.25 0
1 0.375 0
1.125 0.375 0
1.125 0.25 0
1.25 0.25 0
1.125 0.375 0
1.25 0.375 0
1.125 0.375 0
1.25 0.375 0
1.125 0.5 0
1.25 0.5 0
1 0.375 0
1.125 0.375 0
1 0.5 0
1.125 0.5 0
1.5 0 0
1.625 0 0
1.5 0.125 0
1.625 0.125 0
1.625 0 0
1.75 0 0
1.625 0.125 0
1.75 0.125 0
1.625 0.125 0
1.75 0.125 0
1.625 0.25 0
1.75 0.25 0
1.5 0.125 0
1.625 0.125 0
1.5 0.25 0
1.625 0.25 0
1.75 0 0
1.875 0 0
1.75 0.125 0
1.875 0.125 0
1.875 0 0
2 0 0
1.875 0.125 0
2 0.125 0
1.875 0.125 0
2 0.125 0
1.875 0.25 0
2 0.25 0
1.75 0.125 0
1.875 0.125 0
1.75 0.25 0
1.875 0.25 0
1.75 0.25 0
1.875 0.25 0
1.75 0.375 0
1.875 0.375 0
1.875 0.25 0
2 0.25 0
1.875 0.375 0
2 0.375 0
1.875 0.375 0
2 0.375 0
1.875 0.5 0
2 0.5 0
1.75 0.375 0
1.875 0.375 0
1.75 0.5 0
1.875 0.5 0
1.5 0.25 0
1.625 0.25 0
1.5 0.375 0
1.625 0.375 0
1.625 0.25 0
1.75 0.25 0
1.625 0.375 0
1.75 0.375 0
1.625 0.375 0
1.75 0.375 0
1.625 0.5 0
1.75 0.5 0
1.5 0.375 0
1.625 0.375 0
1.5 0.5 0
1.625 0.5 0
1.5 0.5 0
1.625 0.5 0
1.5 0.625 0
1.625 0.625 0
1.625 0.5 0
1.75 0.5 0
1.625 0.625 0
1.75 0.625 0
1.625 0.625 0
1.75 0.625 0
1.625 0.75 0
1.75 0.75 0
1.5 0.625 0
1.625 0.625 0
1.5 0.75 0
1.625 0.75 0
1.75 0.5 0
1.875 0.5 0
1.75 0.625 0
1.875 0.625 0
1.875 0.5 0
2 0.5 0
1.875 0.625 0
2 0.625 0
1.875 0.625 0
2 0.625 0
1.875 0.75 0
2 0.75 0
1.75 0.625 0
1.875 0.625 0
1.75 0.75 0
1.875 0.75 0
1.75 0.75 0
1.875 0.75 0
1.75 0.875 0
1.875 0.875 0
1.875 0.75 0
2 0.75 0
1.875 0.875 0
2 0.875 0
1.875 0.875 0
2 0.875 0
1.875 1 0
2 1 0
1.75 0.875 0
1.875 0.875 0
1.75 1 0
1.875 1 0
1.5 0.75 0
1.625 0.75 0
1.5 0.875 0
1.625 0.875 0
1.625 0.75 0
1.75 0.75 0
1.625 0.875 0
1.75 0.875 0
1.625 0.875 0
1.75 0.875 0
1.625 1 0
1.75 1 0
1.5 0.875 0
1.625 0.875 0
1.5 1 0
1.625 1 0
1 0.5 0
1.125 0.5 0
1 0.625 0
1.125 0.625 0
1.125 0.5 0
1.25 0.5 0
1.125 0.625 0
1.25 0.625 0
1.125 0.625 0
1.25 0.625 0
1.125 0.75 0
1.25 0.75 0
1 0.625 0
1.125 0.625 0
1 0.75 0
1.125 0.75 0
1.25 0.5 0
1.375 0.5 0
1.25 0.625 0
1.375 0.625 0
1.375 0.5 0
1.5 0.5 0
1.375 0.625 0
1.5 0.625 0
1.375 0.625 0
1.5 0.625 0
1.375 0.75 0
1.5 0.75 0
1.25 0.625 0
1.375 0.625 0
1.25 0.75 0
1.375 0.75 0
1.25 0.75 0
1.375 0.75 0
1.25 0.875 0
1.375 0.875 0
1.375 0.75 0
1.5 0.75 0
1.375 0.875 0
1.5 0.875 0
1.375 0.875 0
1.5 0.875 0
1.375 1 0
1.5 1 0
1.25 0.875 0
1.375 0.875 0
1.25 1 0
1.375 1 0
1 0.75 0
1.125 0.75 0
1 0.875 0
1.125 0.875 0
1.125 0.75 0
1.25 0.75 0
1.125 0.875 0
1.25 0.875 0
1.125 0.875 0
1.25 0.875 0
1.125 1 0
1.25 1 0
1 0.875 0
1.125 0.875 0
1 1 0
1.125 1 0
2 0 0
2.125 0 0
2 0.125 0
2.125 0.125 0
2.125 0 0
2.25 0 0
2.125 0.125 0
2.25 0.125 0
2.125 0.125 0
2.25 0.125 0
2.125 0.25 0
2.25 0.25 0
2 0.125 0
2.125 0.125 0
2 0.25 0
2.125 0.25 0
2.25 0 0
2.375 0 0
2.25 0.125 0
2.375 0.125 0
2.375 0 0
2.5 0 0
2.375 0.125 0
2.5 0.125 0
2.375 0.125 0
2.5 0.125 0
2.375 0.25 0
2.5 0.25 0
2.25 0.125 0
2.375 0.125 0
2.25 0.25 0
2.375 0.25 0
2.25 0.25 0
2.375 0.25 0
2.25 0.375 0
2.375 0.375 0
2.375 0.25 0
2.5 0.25 0
2.375 0.375 0
2.5 0.375 0
2.375 0.375 0
2.5 0.375 0
2.375 0.5 0
2.5 0.5 0
2.25 0.375 0
2.375 0.375 0
2.25 0.5 0
2.375 0.5 0
2 0.25 0
2.125 0.25 0
2 0.375 0
2.125 0.375 0
2.125 0.25 0
2.25 0.25 0
2.125 0.375 0
2.25 0.375 0
2.125 0.375 0
2.25 0.375 0
2.125 0.5 0
2.25 0.5 0
2 0.375 0
2.125 0.375 0
2 0.5 0
2.125 0.5 0
2.5 0 0
2.625 0 0
2.5 0.125 0
2.625 0.125 0
2.625 0 0
2.75 0 0
2.625 0.125 0
2.75 0.125 0
2.625 0.125 0
2.75 0.125 0
2.625 0.25 0
2.75 0.25 0
2.5 0.125 0
2.625 0.125 0
2.5 0.25 0
2.625 0.25 0
2.75 0 0
2.875 0 0
2.75 0.125 0
2.875 0.125 0
2.875 0 0
3 0 0
2.875 0.125 0
3 0.125 0
2.875 0.125 0
3 0.125 0
2.875 0.25 0
3 0.25 0
2.75 0.125 0
2.875 0.125 0
2.75 0.25 0
2.875 0.25 0
2.75 0.25 0
2.875 0.25 0
2.75 0.375 0
2.875 0.375 0
2.875 0.25 0
3 0.25 0
2.875 0.375 0
3 0.375 0
2.875 0.375 0
3 0.375 0
2.875 0.5 0
3 0.5 0
2.75 0.375 0
2.875 0.375 0
2.75 0.5 0
2.875 0.5 0
2.5 0.25 0
2.625 0.25 0
2.5 0.375 0
2.625 0.375 0
2.625 0.25 0
2.75 0.25 0
2.625 0.375 0
2.75 0.375 0
2.625 0.375 0
2.75 0.375 0
2.625 0.5 0
2.75 0.5 0
2.5 0.375 0
2.625 0.375 0
2.5 0.5 0
2.625 0.5 0
2.5 0.5 0
2.625 0.5 0
2.5 0.625 0
2.625 0.625 0
2.625 0.5 0
2.75 0.5 0
2.625 0.625 0
2.75 0.625 0
2.625 0.625 0
2.75 0.625 0
2.625 0.75 0
2.75 0.75 0
2.5 0.625 0
2.625 0.625 0
2.5 0.75 0
2.625 0.75 0
2.75 0.5 0
2.875 0.5 0
2.75 0.625 0
2.875 0.625 0
2.875 0.5 0
3 0.5 0
2.875 0.625 0
3 0.625 0
2.875 0.625 0
3 0.625 0
2.875 0.75 0
3 0.75 0
2.75 0.625 0
2.875 0.625 0
2.75 0.75 0
2.875 0.75 0
2.75 0.75 0
2.875 0.75 0
2.75 0.875 0
2.875 0.875 0
2.875 0.75 0
3 0.75 0
2.875 0.875 0
3 0.875 0
2.875 0.875 0
3 0.875 0
2.875 1 0
3 1 0
2.75 0.875 0
2.875 0.875 0
2.75 1 0
2.875 1 0
2.5 0.75 0
2.625 0.75 0
2.5 0.875 0
2.625 0.875 0
2.625 0.75 0
2.75 0.75 0
2.625 0.875 0
2.75 0.875 0
2.625 0.875 0
2.75 0.875 0
2.625 1 0
2.75 1 0
2.5 0.875 0
2.625 0.875 0
2.5 1 0
2.625 1 0
2 0.5 0
2.125 0.5 0
2 0.625 0
2.125 0.625 0
2.125 0.5 0
2.25 0.5 0
2.125 0.625 0
2.25 0.625 0
2.125 0.625 0
2.25 0.625 0
2.125 0.75 0
2.25 0.75 0
2 0.625 0
2.125 0.625 0
2 0.75 0
2.125 0.75 0
2.25 0.5 0
2.375 0.5 0
2.25 0.625 0
2.375 0.625 0
2.375 0.5 0
2.5 0.5 0
2.375 0.625 0
2.5 0.625 0
2.375 0.625 0
2.5 0.625 0
2.375 0.75 0
2.5 0.75 0
2.25 0.625 0
2.375 0.625 0
2.25 0.75 0
2.375 0.75 0
2.25 0.75 0
2.375 0.75 0
2.25 0.875 0
2.375 0.875 0
2.375 0.75 0
2.5 0.75 0
2.375 0.875 0
2.5 0.875 0
2.375 0.875 0
2.5 0.875 0
2.375 1 0
2.5 1 0
2.25 0.875 0
2.375 0.875 0
2.25 1 0
2.375 1 0
2 0.75 0
2.125 0.75 0
2 0.875 0
2.125 0.875 0
2.125 0.75 0
2.25 0.75 0
2.125 0.875 0
2.25 0.875 0
2.125 0.875 0
2.25 0.875 0
2.125 1 0
2.25 1 0
2 0.875 0
2.125 0.875 0
2 1 0
2.125 1 0
3 0 0
3.125 0 0
3 0.125 0
3.125 0.125 0
3.125 0 0
3.25 0 0
3.125 0.125 0
3.25 0.125 0
3.125 0.125 0
3.25 0.125 0
3.125 0.25 0
3.25 0.25 0
3 0.125 0
3.125 0.125 0
3 0.25 0
3.125 0.25 0
3.25 0 0
3.375 0 0
3.25 0.125 0
3.375 0.125 0
3.375 0 0
3.5 0 0
3.375 0.125 0
3.5 0.125 0
3.375 0.125 0
3.5 0.125 0
3.375 0.25 0
3.5 0.25 0
3.25 0.125 0
3.375 0.125 0
3.25 0.25 0
3.375 0.25 0
3.25 0.25 0
3.375 0.25 0
3.25 0.375 0
3.375 0.375 0
3.375 0.25 0
3.5 0.25 0
3.375 0.375 0
3.5 0.375 0
3.375 0.375 0
3.5 0.375 0
3.375 0.5 0
3.5 0.5 0
3.25 0.375 0
3.375 0.375 0
3.25 0.5 0
[...]
<CellData Scalars="attribute">
<DataArray type="Int32" Name="attribute" format="ascii">
1
1
1
1
1
1
1
1
1
1
1
1
1
1
1
1
1
1
1
1
1
1
1
1
1
1
1
1
1
1
1
1
1
1
1
1
1
1
1
1
1
1
1
1
1
1
1
1
1
1
1
1
1
1
1
1
1
1
1
1
1
1
1
1
1
1
1
1
1
1
1
1
1
1
1
1
1
1
1
1
1
1
1
1
1
1
1
1
1
1
1
1
1
1
1
1
1
1
1
1
1
1
1
1
1
1
1
1
1
1
1
1
1
1
1
1
1
1
1
1
1
1
1
1
1
1
1
1
1
1
1
1
1
1
1
1
1
1
1
1
1
1
1
1
1
1
1
1
1
1
1
1
1
1
1
1
1
1
1
1
1
1
1
1
1
1
1
1
1
1
1
1
1
1
1
1
1
1
1
1
1
1
1
1
1
1
1
1
1
1
1
1
1
1
1
1
1
1
1
1
1
1
1
1
1
1
1
1
1
1
1
1
1
1
1
1
1
1
1
1
1
1
1
1
1
1
1
1
1
1
1
1
1
1
1
1
1
1
1
1
1
1
1
1
1
1
1
1
1
1
1
1
1
1
1
1
2
2
2
2
2
2
2
2
2
2
2
2
2
2
2
2
2
2
2
2
2
2
2
2
2
2
2
2
2
2
2
2
2
2
2
2
2
2
2
2
2
2
2
2
2
2
2
2
2
2
2
2
2
2
2
2
2
2
2
2
2
2
2
2
2
2
2
2
2
2
2
2
2
2
2
2
2
2
2
2
2
2
2
2
2
2
2
2
2
2
2
2
2
2
2
2
2
2
2
2
2
2
2
2
2
2
2
2
2
2
2
2
2
2
2
2
2
2
2
2
2
2
2
2
2
2
2
2
2
2
2
2
2
2
2
2
2
2
2
2
2
2
2
2
2
2
2
2
2
2
2
2
2
2
2
2
2
2
2
2
2
2
2
2
2
2
2
2
2
2
2
2
2
2
2
2
2
2
2
2
2
2
2
2
2
2
2
2
2
2
2
2
2
2
2
2
2
2
2
2
2
2
2
2
2
2
2
2
2
2
2
2
2
2
2
2
2
2
2
2
2
2
2
2
2
2
2
2
2
2
2
2
2
2
2
2
2
2
2
2
2
2
2
2
2
2
2
2
2
2
2
2
2
2
2
2
</DataArray>
</CellData>
<PointData >
<DataArray type="Float64" Name="Pressure" NumberOfComponents="1" format="ascii" >
-0.000434566
-6.19501e-07
-0.000711127
-1.02551e-06
-6.19501e-07
3.56897e-11
-1.02551e-06
6.18062e-11
-1.02551e-06
6.18062e-11
-6.88472e-07
4.19715e-11
-0.000711127
-1.02551e-06
-0.000474091
-6.88472e-07
3.56897e-11
-1.30579e-15
6.18062e-11
-2.33148e-15
-1.30579e-15
4.85327e-20
-2.33148e-15
8.98422e-20
-2.33148e-15
8.98422e-20
-1.62341e-15
6.42528e-20
6.18062e-11
-2.33148e-15
4.19715e-11
-1.62341e-15
4.19715e-11
-1.62341e-15
2.1509e-11
-8.29547e-16
-1.62341e-15
6.42528e-20
-8.29547e-16
3.28672e-20
-8.29547e-16
3.28672e-20
-2.74638e-17
1.04272e-21
2.1509e-11
-8.29547e-16
7.5847e-13
-2.74638e-17
-0.000474091
-6.88472e-07
-0.000237052
-3.49602e-07
-6.88472e-07
4.19715e-11
-3.49602e-07
2.1509e-11
-3.49602e-07
2.1509e-11
-7.74326e-09
7.5847e-13
-0.000237052
-3.49602e-07
-9.52763e-09
-7.74326e-09
4.85327e-20
-9.36329e-25
8.98422e-20
-1.79646e-24
-9.36329e-25
3.13805e-29
-1.79646e-24
6.05383e-29
-1.79646e-24
6.05383e-29
-1.33091e-24
4.54903e-29
8.98422e-20
-1.79646e-24
6.42528e-20
-1.33091e-24
3.13805e-29
-2.56384e-34
6.05383e-29
-5.4547e-34
-2.56384e-34
1.32203e-38
-5.4547e-34
2.58848e-38
-5.4547e-34
2.58848e-38
-4.41102e-34
2.00449e-38
6.05383e-29
-5.4547e-34
4.54903e-29
-4.41102e-34
4.54903e-29
-4.41102e-34
2.36499e-29
-2.32589e-34
-4.41102e-34
2.00449e-38
-2.32589e-34
1.0645e-38
-2.32589e-34
1.0645e-38
-6.70641e-36
2.71038e-40
2.36499e-29
-2.32589e-34
6.78359e-31
-6.70641e-36
6.42528e-20
-1.33091e-24
3.28672e-20
-6.84984e-25
-1.33091e-24
4.54903e-29
-6.84984e-25
2.36499e-29
-6.84984e-25
2.36499e-29
-2.09226e-26
6.78359e-31
3.28672e-20
-6.84984e-25
1.04272e-21
-2.09226e-26
1.04272e-21
-2.09226e-26
-3.12256e-20
6.52373e-25
-2.09226e-26
6.78359e-31
6.52373e-25
-2.2615e-29
6.52373e-25
-2.2615e-29
1.32613e-24
-4.537e-29
-3.12256e-20
6.52373e-25
-6.39508e-20
1.32613e-24
6.78359e-31
-6.70641e-36
-2.2615e-29
2.22428e-34
-6.70641e-36
2.71038e-40
2.22428e-34
-1.02432e-38
2.22428e-34
-1.02432e-38
4.39912e-34
-2.00124e-38
-2.2615e-29
2.22428e-34
-4.537e-29
4.39912e-34
-4.537e-29
4.39912e-34
-6.15044e-29
5.5378e-34
4.39912e-34
-2.00124e-38
5.5378e-34
-2.6247e-38
5.5378e-34
-2.6247e-38
2.61981e-34
-1.34762e-38
-6.15044e-29
5.5378e-34
-3.20868e-29
2.61981e-34
-6.39508e-20
1.32613e-24
-9.14438e-20
1.82704e-24
1.32613e-24
-4.537e-29
1.82704e-24
-6.15044e-29
1.82704e-24
-6.15044e-29
9.59057e-25
-3.20868e-29
-9.14438e-20
1.82704e-24
-4.98089e-20
9.59057e-25
-9.52763e-09
-7.74326e-09
0.000237037
3.37106e-07
-7.74326e-09
7.5847e-13
3.37106e-07
-2.02876e-11
3.37106e-07
-2.02876e-11
6.84944e-07
-4.16359e-11
0.000237037
3.37106e-07
0.000474087
6.84944e-07
7.5847e-13
-2.74638e-17
-2.02876e-11
7.85764e-16
-2.74638e-17
1.04272e-21
7.85764e-16
-3.12256e-20
7.85764e-16
-3.12256e-20
1.61323e-15
-6.39508e-20
-2.02876e-11
7.85764e-16
-4.16359e-11
1.61323e-15
-4.16359e-11
1.61323e-15
-6.29502e-11
2.37487e-15
1.61323e-15
-6.39508e-20
2.37487e-15
-9.14438e-20
2.37487e-15
-9.14438e-20
1.34273e-15
-4.98089e-20
-6.29502e-11
2.37487e-15
-3.68612e-11
1.34273e-15
0.000474087
6.84944e-07
0.000711141
1.03705e-06
6.84944e-07
-4.16359e-11
1.03705e-06
-6.29502e-11
1.03705e-06
-6.29502e-11
6.31728e-07
-3.68612e-11
0.000711141
1.03705e-06
0.000434581
6.31728e-07
1.32203e-38
1.85386e-44
2.58848e-38
7.01827e-45
1.85386e-44
4.37394e-48
7.01827e-45
8.48755e-48
7.01827e-45
8.48755e-48
-1.16254e-44
6.6239e-48
2.58848e-38
7.01827e-45
2.00449e-38
-1.16254e-44
4.37394e-48
3.75163e-53
8.48755e-48
6.34996e-53
3.75163e-53
1.21349e-57
6.34996e-53
2.31239e-57
6.34996e-53
2.31239e-57
4.3834e-53
1.79485e-57
8.48755e-48
6.34996e-53
6.6239e-48
4.3834e-53
6.6239e-48
4.3834e-53
3.56993e-48
2.28488e-53
4.3834e-53
1.79485e-57
2.28488e-53
9.73186e-58
2.28488e-53
9.73186e-58
3.84243e-55
1.85109e-59
3.56993e-48
2.28488e-53
7.90884e-50
3.84243e-55
2.00449e-38
-1.16254e-44
1.0645e-38
-7.93565e-45
-1.16254e-44
6.6239e-48
-7.93565e-45
3.56993e-48
-7.93565e-45
3.56993e-48
-4.52827e-46
7.90884e-50
1.0645e-38
-7.93565e-45
2.71038e-40
-4.52827e-46
1.21349e-57
1.45985e-62
2.31239e-57
2.61697e-62
1.45985e-62
2.77335e-67
2.61697e-62
5.20888e-67
2.61697e-62
5.20888e-67
1.92274e-62
4.0153e-67
2.31239e-57
2.61697e-62
1.79485e-57
1.92274e-62
2.77335e-67
3.50509e-72
5.20888e-67
6.40004e-72
3.50509e-72
5.08404e-77
6.40004e-72
9.47037e-77
6.40004e-72
9.47037e-77
4.80774e-72
7.27245e-77
5.20888e-67
6.40004e-72
4.0153e-67
4.80774e-72
4.0153e-67
4.80774e-72
2.18013e-67
2.58481e-72
4.80774e-72
7.27245e-77
2.58481e-72
3.94946e-77
2.58481e-72
3.94946e-77
3.71761e-74
5.53231e-79
2.18013e-67
2.58481e-72
3.55144e-69
3.71761e-74
1.79485e-57
1.92274e-62
9.73186e-58
1.0238e-62
1.92274e-62
4.0153e-67
1.0238e-62
2.18013e-67
1.0238e-62
2.18013e-67
1.64518e-64
3.55144e-69
9.73186e-58
1.0238e-62
1.85109e-59
1.64518e-64
1.85109e-59
1.64518e-64
-9.46543e-58
-1.00052e-62
1.64518e-64
3.55144e-69
-1.00052e-62
-2.12937e-67
-1.00052e-62
-2.12937e-67
-1.92336e-62
-4.0139e-67
-9.46543e-58
-1.00052e-62
-1.79372e-57
-1.92336e-62
3.55144e-69
3.71761e-74
-2.12937e-67
-2.53224e-72
3.71761e-74
5.53231e-79
-2.53224e-72
-3.87075e-77
-2.53224e-72
-3.87075e-77
-4.80849e-72
-7.27116e-77
-2.12937e-67
-2.53224e-72
-4.0139e-67
-4.80849e-72
-4.0139e-67
-4.80849e-72
-5.25681e-67
-6.45546e-72
-4.80849e-72
-7.27116e-77
-6.45546e-72
-9.54642e-77
-6.45546e-72
-9.54642e-77
-3.54458e-72
-5.13798e-77
-5.25681e-67
-6.45546e-72
-2.8073e-67
-3.54458e-72
-1.79372e-57
-1.92336e-62
-2.33682e-57
-2.64292e-62
-1.92336e-62
-4.0139e-67
-2.64292e-62
-5.25681e-67
-2.64292e-62
-5.25681e-67
-1.47857e-62
-2.8073e-67
-2.33682e-57
-2.64292e-62
-1.23073e-57
-1.47857e-62
2.71038e-40
-4.52827e-46
-1.02432e-38
7.22684e-45
-4.52827e-46
7.90884e-50
7.22684e-45
-3.45481e-48
7.22684e-45
-3.45481e-48
1.13983e-44
-6.61703e-48
-1.02432e-38
7.22684e-45
-2.00124e-38
1.13983e-44
7.90884e-50
3.84243e-55
-3.45481e-48
-2.23077e-53
3.84243e-55
1.85109e-59
-2.23077e-53
-9.46543e-58
-2.23077e-53
-9.46543e-58
-4.38745e-53
-1.79372e-57
-3.45481e-48
-2.23077e-53
-6.61703e-48
-4.38745e-53
-6.61703e-48
-4.38745e-53
-8.59076e-48
-6.42161e-53
-4.38745e-53
-1.79372e-57
-6.42161e-53
-2.33682e-57
-6.42161e-53
-2.33682e-57
-3.80542e-53
-1.23073e-57
-8.59076e-48
-6.42161e-53
-4.44644e-48
-3.80542e-53
-2.00124e-38
1.13983e-44
-2.6247e-38
-7.0592e-45
1.13983e-44
-6.61703e-48
-7.0592e-45
-8.59076e-48
-7.0592e-45
-8.59076e-48
-1.87232e-44
-4.44644e-48
-2.6247e-38
-7.0592e-45
-1.34762e-38
-1.87232e-44
5.08404e-77
6.08751e-82
9.47037e-77
1.11973e-81
6.08751e-82
7.42297e-87
1.11973e-81
1.37708e-86
1.11973e-81
1.37708e-86
8.50068e-82
1.05622e-86
9.47037e-77
1.11973e-81
7.27245e-77
8.50068e-82
7.42297e-87
8.13371e-92
1.37708e-86
1.5006e-91
8.13371e-92
8.69144e-97
1.5006e-91
1.60923e-96
1.5006e-91
1.60923e-96
1.14555e-91
1.23445e-96
1.37708e-86
1.5006e-91
1.05622e-86
1.14555e-91
1.05622e-86
1.14555e-91
5.73732e-87
6.20913e-92
1.14555e-91
1.23445e-96
6.20913e-92
6.70755e-97
6.20913e-92
6.70755e-97
6.90487e-94
7.04729e-99
5.73732e-87
6.20913e-92
6.94627e-89
6.90487e-94
7.27245e-77
8.50068e-82
3.94946e-77
4.59424e-82
8.50068e-82
1.05622e-86
4.59424e-82
5.73732e-87
4.59424e-82
5.73732e-87
5.82644e-84
6.94627e-89
3.94946e-77
4.59424e-82
5.53231e-79
5.82644e-84
8.69144e-97
8.64238e-102
1.60923e-96
1.59625e-101
8.64238e-102
8.26055e-107
1.59625e-101
1.5279e-106
1.59625e-101
1.5279e-106
1.22237e-101
1.1728e-106
1.60923e-96
1.59625e-101
1.23445e-96
1.22237e-101
8.26055e-107
7.46159e-112
1.5279e-106
1.37859e-111
7.46159e-112
6.45513e-117
1.37859e-111
1.19324e-116
1.37859e-111
1.19324e-116
1.05765e-111
9.1656e-117
1.5279e-106
1.37859e-111
1.1728e-106
1.05765e-111
1.1728e-106
1.05765e-111
6.37442e-107
5.74662e-112
1.05765e-111
9.1656e-117
5.74662e-112
4.98279e-117
5.74662e-112
4.98279e-117
4.88626e-114
3.97082e-119
6.37442e-107
5.74662e-112
5.8276e-109
4.88626e-114
1.23445e-96
1.22237e-101
6.70755e-97
6.63599e-102
1.22237e-101
1.1728e-106
6.63599e-102
6.37442e-107
6.63599e-102
6.37442e-107
6.45579e-104
5.8276e-109
6.70755e-97
6.63599e-102
7.04729e-99
6.45579e-104
7.04729e-99
6.45579e-104
-6.60771e-97
-6.54471e-102
6.45579e-104
5.8276e-109
-6.54471e-102
-6.29191e-107
-6.54471e-102
-6.29191e-107
-1.22239e-101
-1.17276e-106
-6.60771e-97
-6.54471e-102
-1.2344e-96
-1.22239e-101
5.8276e-109
4.88626e-114
-6.29191e-107
-5.67751e-112
4.88626e-114
3.97082e-119
-5.67751e-112
-4.92658e-117
-5.67751e-112
-4.92658e-117
-1.05765e-111
-9.1654e-117
-6.29191e-107
-5.67751e-112
-1.17276e-106
-1.05765e-111
-1.17276e-106
-1.05765e-111
-1.53606e-106
-1.38548e-111
-1.05765e-111
-9.1654e-117
-1.38548e-111
-1.1988e-116
-1.38548e-111
-1.1988e-116
-7.51036e-112
-6.49452e-117
-1.53606e-106
-1.38548e-111
-8.31838e-107
-7.51036e-112
-1.2344e-96
-1.22239e-101
-1.61908e-96
-1.6054e-101
-1.22239e-101
-1.17276e-106
-1.6054e-101
-1.53606e-106
-1.6054e-101
-1.53606e-106
-8.70716e-102
-8.31838e-107
-1.61908e-96
-1.6054e-101
-8.76127e-97
-8.70716e-102
5.53231e-79
5.82644e-84
-3.87075e-77
-4.51187e-82
5.82644e-84
6.94627e-89
-4.51187e-82
-5.63875e-87
-4.51187e-82
-5.63875e-87
-8.50134e-82
-1.05613e-86
-3.87075e-77
-4.51187e-82
-7.27116e-77
-8.50134e-82
6.94627e-89
6.90487e-94
-5.63875e-87
-6.11151e-92
6.90487e-94
7.04729e-99
-6.11151e-92
-6.60771e-97
-6.11151e-92
-6.60771e-97
-1.14559e-91
-1.2344e-96
-5.63875e-87
-6.11151e-92
-1.05613e-86
-1.14559e-91
-1.05613e-86
-1.14559e-91
-1.38674e-86
-1.51047e-91
-1.14559e-91
-1.2344e-96
-1.51047e-91
-1.61908e-96
-1.51047e-91
-1.61908e-96
-8.20362e-92
-8.76127e-97
-1.38674e-86
-1.51047e-91
-7.49145e-87
-8.20362e-92
-7.27116e-77
-8.50134e-82
-9.54642e-77
-1.12818e-81
-8.50134e-82
-1.05613e-86
-1.12818e-81
-1.38674e-86
-1.12818e-81
-1.38674e-86
-6.14747e-82
-7.49145e-87
-9.54642e-77
-1.12818e-81
-5.13798e-77
-6.14747e-82
6.45513e-117
5.31808e-122
1.19324e-116
9.82512e-122
5.31808e-122
4.19704e-127
9.82512e-122
7.75493e-127
9.82512e-122
7.75493e-127
7.5467e-122
5.96054e-127
1.19324e-116
9.82512e-122
9.1656e-117
7.5467e-122
4.19704e-127
3.16832e-132
7.75493e-127
5.85232e-132
3.16832e-132
2.29448e-137
5.85232e-132
4.23805e-137
5.85232e-132
4.23805e-137
4.49871e-132
3.25911e-137
7.75493e-127
5.85232e-132
5.96054e-127
4.49871e-132
5.96054e-127
4.49871e-132
3.24077e-127
2.44582e-132
4.49871e-132
3.25911e-137
2.44582e-132
1.77205e-137
2.44582e-132
1.77205e-137
1.5881e-134
1.07644e-139
3.24077e-127
2.44582e-132
2.25386e-129
1.5881e-134
9.1656e-117
7.5467e-122
4.98279e-117
4.10215e-122
7.5467e-122
5.96054e-127
4.10215e-122
3.24077e-127
4.10215e-122
3.24077e-127
3.04787e-124
2.25386e-129
4.98279e-117
4.10215e-122
3.97082e-119
3.04787e-124
2.29448e-137
1.59414e-142
4.23805e-137
2.94386e-142
1.59414e-142
1.06437e-147
2.94386e-142
1.96536e-147
2.94386e-142
1.96536e-147
2.26421e-142
1.512e-147
4.23805e-137
2.94386e-142
3.25911e-137
2.26421e-142
1.06437e-147
6.83314e-153
1.96536e-147
1.26153e-152
6.83314e-153
4.22283e-158
1.26153e-152
7.79526e-158
1.26153e-152
7.79526e-158
9.70666e-153
5.99902e-158
1.96536e-147
1.26153e-152
1.512e-147
9.70666e-153
1.512e-147
9.70666e-153
8.22089e-148
5.27738e-153
9.70666e-153
5.99902e-158
5.27738e-153
3.26152e-158
5.27738e-153
3.26152e-158
2.61936e-155
1.51427e-160
8.22089e-148
5.27738e-153
4.36463e-150
2.61936e-155
3.25911e-137
2.26421e-142
1.77205e-137
1.23105e-142
2.26421e-142
1.512e-147
1.23105e-142
8.22089e-148
1.23105e-142
8.22089e-148
6.98736e-145
4.36463e-150
1.77205e-137
1.23105e-142
1.07644e-139
6.98736e-145
1.07644e-139
6.98736e-145
-1.75681e-137
-1.22116e-142
6.98736e-145
4.36463e-150
-1.22116e-142
-8.15905e-148
-1.22116e-142
-8.15905e-148
-2.26415e-142
-1.51196e-147
-1.75681e-137
-1.22116e-142
-3.25902e-137
-2.26415e-142
4.36463e-150
2.61936e-155
-8.15905e-148
-5.24026e-153
2.61936e-155
1.51427e-160
-5.24026e-153
-3.24005e-158
-5.24026e-153
-3.24005e-158
-9.70637e-153
-5.99882e-158
-8.15905e-148
-5.24026e-153
-1.51196e-147
-9.70637e-153
-1.51196e-147
-9.70637e-153
-1.97143e-147
-1.26517e-152
-9.70637e-153
-5.99882e-158
-1.26517e-152
-7.81627e-158
-1.26517e-152
-7.81627e-158
-6.85892e-153
-4.2377e-158
-1.97143e-147
-1.26517e-152
-1.06867e-147
-6.85892e-153
-3.25902e-137
-2.26415e-142
-4.25308e-137
-2.95361e-142
-2.26415e-142
-1.51196e-147
-2.95361e-142
-1.97143e-147
-2.95361e-142
-1.97143e-147
-1.60104e-142
-1.06867e-147
-4.25308e-137
-2.95361e-142
-2.30512e-137
-1.60104e-142
3.97082e-119
3.04787e-124
-4.92658e-117
-4.05903e-122
3.04787e-124
2.25386e-129
-4.05903e-122
-3.20886e-127
-4.05903e-122
-3.20886e-127
-7.54661e-122
-5.96041e-127
-4.92658e-117
-4.05903e-122
-9.1654e-117
-7.54661e-122
2.25386e-129
1.5881e-134
-3.20886e-127
-2.42334e-132
1.5881e-134
1.07644e-139
-2.42334e-132
-1.75681e-137
-2.42334e-132
-1.75681e-137
-4.49863e-132
-3.25902e-137
-3.20886e-127
-2.42334e-132
-5.96041e-127
-4.49863e-132
-5.96041e-127
-4.49863e-132
-7.78645e-127
-5.87454e-132
-4.49863e-132
-3.25902e-137
-5.87454e-132
-4.25308e-137
-5.87454e-132
-4.25308e-137
-3.18406e-132
-2.30512e-137
-7.78645e-127
-5.87454e-132
-4.21936e-127
-3.18406e-132
-9.1654e-117
-7.54661e-122
-1.1988e-116
-9.86792e-122
-7.54661e-122
-5.96041e-127
-9.86792e-122
-7.78645e-127
-9.86792e-122
-7.78645e-127
-5.34838e-122
-4.21936e-127
-1.1988e-116
-9.86792e-122
-6.49452e-117
-5.34838e-122
4.22283e-158
2.51382e-163
7.79526e-158
4.63982e-163
2.51382e-163
1.44274e-168
4.63982e-163
2.66259e-168
4.63982e-163
2.66259e-168
3.57111e-163
2.04957e-168
7.79526e-158
4.63982e-163
5.99902e-158
3.57111e-163
1.44274e-168
7.98816e-174
2.66259e-168
1.47405e-173
7.98816e-174
4.26991e-179
1.47405e-173
7.87836e-179
1.47405e-173
7.87836e-179
1.13478e-173
6.06569e-179
2.66259e-168
1.47405e-173
2.04957e-168
1.13478e-173
2.04957e-168
1.13478e-173
1.1142e-168
6.16869e-174
1.13478e-173
6.06569e-179
6.16869e-174
3.29716e-179
6.16869e-174
3.29716e-179
2.34419e-176
1.17243e-181
1.1142e-168
6.16869e-174
4.52606e-171
2.34419e-176
5.99902e-158
3.57111e-163
3.26152e-158
1.94143e-163
3.57111e-163
2.04957e-168
1.94143e-163
1.1142e-168
1.94143e-163
1.1142e-168
8.42975e-166
4.52606e-171
3.26152e-158
1.94143e-163
1.51427e-160
8.42975e-166
4.26991e-179
2.20476e-184
7.87836e-179
4.06754e-184
2.20476e-184
1.10035e-189
4.06754e-184
2.02983e-189
4.06754e-184
2.02983e-189
3.13193e-184
1.56305e-189
7.87836e-179
4.06754e-184
6.06569e-179
3.13193e-184
1.10035e-189
5.31079e-195
2.02983e-189
9.79591e-195
5.31079e-195
2.48005e-200
9.79591e-195
4.57412e-200
9.79591e-195
4.57412e-200
7.54373e-195
3.52269e-200
2.02983e-189
9.79591e-195
1.56305e-189
7.54373e-195
1.56305e-189
7.54373e-195
8.49548e-190
4.09996e-195
7.54373e-195
3.52269e-200
4.09996e-195
1.91446e-200
4.09996e-195
1.91446e-200
1.19519e-197
5.22485e-203
8.49548e-190
4.09996e-195
2.64578e-192
1.19519e-197
6.06569e-179
3.13193e-184
3.29716e-179
1.70235e-184
3.13193e-184
1.56305e-189
1.70235e-184
8.49548e-190
1.70235e-184
8.49548e-190
5.66454e-187
2.64578e-192
3.29716e-179
1.70235e-184
1.17243e-181
5.66454e-187
1.17243e-181
5.66454e-187
-3.28051e-179
-1.6943e-184
5.66454e-187
2.64578e-192
-1.6943e-184
-8.45787e-190
-1.6943e-184
-8.45787e-190
-3.1318e-184
-1.56298e-189
-3.28051e-179
-1.6943e-184
-6.06545e-179
-3.1318e-184
2.64578e-192
1.19519e-197
-8.45787e-190
-4.08296e-195
1.19519e-197
5.22485e-203
-4.08296e-195
-1.90703e-200
-4.08296e-195
-1.90703e-200
-7.5434e-195
-3.52253e-200
-8.45787e-190
-4.08296e-195
-1.56298e-189
-7.5434e-195
-1.56298e-189
-7.5434e-195
-2.03345e-189
-9.81221e-195
-7.5434e-195
-3.52253e-200
-9.81221e-195
-4.58122e-200
-9.81221e-195
-4.58122e-200
-5.32233e-195
-2.48508e-200
-2.03345e-189
-9.81221e-195
-1.10292e-189
-5.32233e-195
-6.06545e-179
-3.1318e-184
-7.89449e-179
-4.07531e-184
-3.1318e-184
-1.56298e-189
-4.07531e-184
-2.03345e-189
-4.07531e-184
-2.03345e-189
-2.21026e-184
-1.10292e-189
-7.89449e-179
-4.07531e-184
-4.28133e-179
-2.21026e-184
1.51427e-160
8.42975e-166
-3.24005e-158
-1.92948e-163
8.42975e-166
4.52606e-171
-1.92948e-163
-1.10778e-168
-1.92948e-163
-1.10778e-168
-3.57099e-163
-2.04949e-168
-3.24005e-158
-1.92948e-163
-5.99882e-158
-3.57099e-163
4.52606e-171
2.34419e-176
-1.10778e-168
-6.13542e-174
2.34419e-176
1.17243e-181
-6.13542e-174
-3.28051e-179
-6.13542e-174
-3.28051e-179
-1.13474e-173
-6.06545e-179
-1.10778e-168
-6.13542e-174
-2.04949e-168
-1.13474e-173
-2.04949e-168
-1.13474e-173
-2.66884e-168
-1.47728e-173
-1.13474e-173
-6.06545e-179
-1.47728e-173
-7.89449e-179
-1.47728e-173
-7.89449e-179
-8.01104e-174
-4.28133e-179
-2.66884e-168
-1.47728e-173
-1.44716e-168
-8.01104e-174
-5.99882e-158
-3.57099e-163
-7.81627e-158
-4.65149e-163
-3.57099e-163
-2.04949e-168
-4.65149e-163
-2.66884e-168
-4.65149e-163
-2.66884e-168
-2.52208e-163
-1.44716e-168
-7.81627e-158
-4.65149e-163
-4.2377e-158
-2.52208e-163
2.48005e-200
1.12108e-205
4.57412e-200
2.0675e-205
1.12108e-205
4.9076e-211
2.0675e-205
9.04991e-211
2.0675e-205
9.04991e-211
1.59234e-205
6.97038e-211
4.57412e-200
2.0675e-205
3.52269e-200
1.59234e-205
4.9076e-211
2.08129e-216
9.04991e-211
3.83774e-216
2.08129e-216
8.55428e-222
3.83774e-216
1.57723e-221
3.83774e-216
1.57723e-221
2.95602e-216
1.21491e-221
9.04991e-211
3.83774e-216
6.97038e-211
2.95602e-216
6.97038e-211
2.95602e-216
3.78781e-211
1.60627e-216
2.95602e-216
1.21491e-221
1.60627e-216
6.60144e-222
1.60627e-216
6.60144e-222
3.6003e-219
1.38614e-224
3.78781e-211
1.60627e-216
9.06441e-214
3.6003e-219
3.52269e-200
1.59234e-205
1.91446e-200
8.65341e-206
1.59234e-205
6.97038e-211
8.65341e-206
3.78781e-211
8.65341e-206
3.78781e-211
2.21125e-208
9.06441e-214
1.91446e-200
8.65341e-206
5.22485e-203
2.21125e-208
8.55428e-222
3.40851e-227
1.57723e-221
6.28417e-227
3.40851e-227
1.31707e-232
6.28417e-227
2.42809e-232
6.28417e-227
2.42809e-232
4.84076e-227
1.87044e-232
1.57723e-221
6.28417e-227
1.21491e-221
4.84076e-227
1.31707e-232
4.93663e-238
2.42809e-232
9.1004e-238
4.93663e-238
1.7953e-243
9.1004e-238
3.30936e-243
9.1004e-238
3.30936e-243
7.01058e-238
2.54946e-243
2.42809e-232
9.1004e-238
1.87044e-232
7.01058e-238
1.87044e-232
7.01058e-238
1.01626e-232
3.80888e-238
7.01058e-238
2.54946e-243
3.80888e-238
1.38509e-243
3.80888e-238
1.38509e-243
6.58284e-241
2.24438e-246
1.01626e-232
3.80888e-238
1.87376e-235
6.58284e-241
1.21491e-221
4.84076e-227
6.60144e-222
2.6302e-227
4.84076e-227
1.87044e-232
2.6302e-227
1.01626e-232
2.6302e-227
1.01626e-232
5.1747e-230
1.87376e-235
6.60144e-222
2.6302e-227
1.38614e-224
5.1747e-230
1.38614e-224
5.1747e-230
-6.58166e-222
-2.62281e-227
5.1747e-230
1.87376e-235
-2.62281e-227
-1.01358e-232
-2.62281e-227
-1.01358e-232
-4.84051e-227
-1.87034e-232
-6.58166e-222
-2.62281e-227
-1.21485e-221
-4.84051e-227
1.87376e-235
6.58284e-241
-1.01358e-232
-3.79946e-238
6.58284e-241
2.24438e-246
-3.79946e-238
-1.38187e-243
-3.79946e-238
-1.38187e-243
-7.01021e-238
-2.54933e-243
-1.01358e-232
-3.79946e-238
-1.87034e-232
-7.01021e-238
-1.87034e-232
-7.01021e-238
-2.43057e-232
-9.1091e-238
-7.01021e-238
-2.54933e-243
-9.1091e-238
-3.31231e-243
-9.1091e-238
-3.31231e-243
-4.94278e-238
-1.79739e-243
-2.43057e-232
-9.1091e-238
-1.31883e-232
-4.94278e-238
-1.21485e-221
-4.84051e-227