<VTKFile type="UnstructuredGrid" version="0.1" byte_order="LittleEndian">
<UnstructuredGrid>
<Piece NumberOfPoints="2048" NumberOfCells="512">
<Points>
<DataArray type="Float64" NumberOfComponents="3" format="ascii">
0 0 0
0.125 0 0
0 0.125 0
0.125 0.125 0
0.125 0 0
0.25 0 0
0.125 0.125 0
0.25 0.125 0
0.125 0.125 0
0.25 0.125 0
0.125 0.25 0
0.25 0.25 0
0 0.125 0
0.125 0.125 0
0 0.25 0
0.125 0.25 0
0.25 0 0
0.375 0 0
0.25 0.125 0
0.375 0.125 0
0.375 0 0
0.5 0 0
0.375 0.125 0
0.5 0.125 0
0.375 0.125 0
0.5 0.125 0
0.375 0.25 0
0.5 0.25 0
0.25 0.125 0
0.375 0.125 0
0.25 0.25 0
0.375 0.25 0
0.25 0.25 0
0.375 0.25 0
0.25 0.375 0
0.375 0.375 0
0.375 0.25 0
0.5 0.25 0
0.375 0.375 0
0.5 0.375 0
0.375 0.375 0
0.5 0.375 0
0.375 0.5 0
0.5 0.5 0
0.25 0.375 0
0.375 0.375 0
0.25 0.5 0
0.375 0.5 0
0 0.25 0
0.125 0.25 0
0 0.375 0
0.125 0.375 0
0.125 0.25 0
0.25 0.25 0
0.125 0.375 0
0.25 0.375 0
0.125 0.375 0
0.25 0.375 0
0.125 0.5 0
0.25 0.5 0
0 0.375 0
0.125 0.375 0
0 0.5 0
0.125 0.5 0
0.5 0 0
0.625 0 0
0.5 0.125 0
0.625 0.125 0
0.625 0 0
0.75 0 0
0.625 0.125 0
0.75 0.125 0
0.625 0.125 0
0.75 0.125 0
0.625 0.25 0
0.75 0.25 0
0.5 0.125 0
0.625 0.125 0
0.5 0.25 0
0.625 0.25 0
0.75 0 0
0.875 0 0
0.75 0.125 0
0.875 0.125 0
0.875 0 0
1 0 0
0.875 0.125 0
1 0.125 0
0.875 0.125 0
1 0.125 0
0.875 0.25 0
1 0.25 0
0.75 0.125 0
0.875 0.125 0
0.75 0.25 0
0.875 0.25 0
0.75 0.25 0
0.875 0.25 0
0.75 0.375 0
0.875 0.375 0
0.875 0.25 0
1 0.25 0
0.875 0.375 0
1 0.375 0
0.875 0.375 0
1 0.375 0
0.875 0.5 0
1 0.5 0
0.75 0.375 0
0.875 0.375 0
0.75 0.5 0
0.875 0.5 0
0.5 0.25 0
0.625 0.25 0
0.5 0.375 0
0.625 0.375 0
0.625 0.25 0
0.75 0.25 0
0.625 0.375 0
0.75 0.375 0
0.625 0.375 0
0.75 0.375 0
0.625 0.5 0
0.75 0.5 0
0.5 0.375 0
0.625 0.375 0
0.5 0.5 0
0.625 0.5 0
0.5 0.5 0
0.625 0.5 0
0.5 0.625 0
0.625 0.625 0
0.625 0.5 0
0.75 0.5 0
0.625 0.625 0
0.75 0.625 0
0.625 0.625 0
0.75 0.625 0
0.625 0.75 0
0.75 0.75 0
0.5 0.625 0
0.625 0.625 0
0.5 0.75 0
0.625 0.75 0
0.75 0.5 0
0.875 0.5 0
0.75 0.625 0
0.875 0.625 0
0.875 0.5 0
1 0.5 0
0.875 0.625 0
1 0.625 0
0.875 0.625 0
1 0.625 0
0.875 0.75 0
1 0.75 0
0.75 0.625 0
0.875 0.625 0
0.75 0.75 0
0.875 0.75 0
0.75 0.75 0
0.875 0.75 0
0.75 0.875 0
0.875 0.875 0
0.875 0.75 0
1 0.75 0
0.875 0.875 0
1 0.875 0
0.875 0.875 0
1 0.875 0
0.875 1 0
1 1 0
0.75 0.875 0
0.875 0.875 0
0.75 1 0
0.875 1 0
0.5 0.75 0
0.625 0.75 0
0.5 0.875 0
0.625 0.875 0
0.625 0.75 0
0.75 0.75 0
0.625 0.875 0
0.75 0.875 0
0.625 0.875 0
0.75 0.875 0
0.625 1 0
0.75 1 0
0.5 0.875 0
0.625 0.875 0
0.5 1 0
0.625 1 0
0 0.5 0
0.125 0.5 0
0 0.625 0
0.125 0.625 0
0.125 0.5 0
0.25 0.5 0
0.125 0.625 0
0.25 0.625 0
0.125 0.625 0
0.25 0.625 0
0.125 0.75 0
0.25 0.75 0
0 0.625 0
0.125 0.625 0
0 0.75 0
0.125 0.75 0
0.25 0.5 0
0.375 0.5 0
0.25 0.625 0
0.375 0.625 0
0.375 0.5 0
0.5 0.5 0
0.375 0.625 0
0.5 0.625 0
0.375 0.625 0
0.5 0.625 0
0.375 0.75 0
0.5 0.75 0
0.25 0.625 0
0.375 0.625 0
0.25 0.75 0
0.375 0.75 0
0.25 0.75 0
0.375 0.75 0
0.25 0.875 0
0.375 0.875 0
0.375 0.75 0
0.5 0.75 0
0.375 0.875 0
0.5 0.875 0
0.375 0.875 0
0.5 0.875 0
0.375 1 0
0.5 1 0
0.25 0.875 0
0.375 0.875 0
0.25 1 0
0.375 1 0
0 0.75 0
0.125 0.75 0
0 0.875 0
0.125 0.875 0
0.125 0.75 0
0.25 0.75 0
0.125 0.875 0
0.25 0.875 0
0.125 0.875 0
0.25 0.875 0
0.125 1 0
0.25 1 0
0 0.875 0
0.125 0.875 0
0 1 0
0.125 1 0
1 0 0
1.125 0 0
1 0.125 0
1.125 0.125 0
1.125 0 0
1.25 0 0
1.125 0.125 0
1.25 0.125 0
1.125 0.125 0
1.25 0.125 0
1.125 0.25 0
1.25 0.25 0
1 0.125 0
1.125 0.125 0
1 0.25 0
1.125 0.25 0
1.25 0 0
1.375 0 0
1.25 0.125 0
1.375 0.125 0
1.375 0 0
1.5 0 0
1.375 0.125 0
1.5 0.125 0
1.375 0.125 0
1.5 0.125 0
1.375 0.25 0
1.5 0.25 0
1.25 0.125 0
1.375 0.125 0
1.25 0.25 0
1.375 0.25 0
1.25 0.25 0
1.375 0.25 0
1.25 0.375 0
1.375 0.375 0
1.375 0.25 0
1.5 0.25 0
1.375 0.375 0
1.5 0.375 0
1.375 0.375 0
1.5 0.375 0
1.375 0.5 0
1.5 0.5 0
1.25 0.375 0
1.375 0.375 0
1.25 0.5 0
1.375 0.5 0
1 0.25 0
1.125 0.25 0
1 0.375 0
1.125 0.375 0
1.125 0.25 0
1.25 0.25 0
1.125 0.375 0
1.25 0.375 0
1.125 0.375 0
1.25 0.375 0
1.125 0.5 0
1.25 0.5 0
1 0.375 0
1.125 0.375 0
1 0.5 0
1.125 0.5 0
1.5 0 0
1.625 0 0
1.5 0.125 0
1.625 0.125 0
1.625 0 0
1.75 0 0
1.625 0.125 0
1.75 0.125 0
1.625 0.125 0
1.75 0.125 0
1.625 0.25 0
1.75 0.25 0
1.5 0.125 0
1.625 0.125 0
1.5 0.25 0
1.625 0.25 0
1.75 0 0
1.875 0 0
1.75 0.125 0
1.875 0.125 0
1.875 0 0
2 0 0
1.875 0.125 0
2 0.125 0
1.875 0.125 0
2 0.125 0
1.875 0.25 0
2 0.25 0
1.75 0.125 0
1.875 0.125 0
1.75 0.25 0
1.875 0.25 0
1.75 0.25 0
1.875 0.25 0
1.75 0.375 0
1.875 0.375 0
1.875 0.25 0
2 0.25 0
1.875 0.375 0
2 0.375 0
1.875 0.375 0
2 0.375 0
1.875 0.5 0
2 0.5 0
1.75 0.375 0
1.875 0.375 0
1.75 0.5 0
1.875 0.5 0
1.5 0.25 0
1.625 0.25 0
1.5 0.375 0
1.625 0.375 0
1.625 0.25 0
1.75 0.25 0
1.625 0.375 0
1.75 0.375 0
1.625 0.375 0
1.75 0.375 0
1.625 0.5 0
1.75 0.5 0
1.5 0.375 0
1.625 0.375 0
1.5 0.5 0
1.625 0.5 0
1.5 0.5 0
1.625 0.5 0
1.5 0.625 0
1.625 0.625 0
1.625 0.5 0
1.75 0.5 0
1.625 0.625 0
1.75 0.625 0
1.625 0.625 0
1.75 0.625 0
1.625 0.75 0
1.75 0.75 0
1.5 0.625 0
1.625 0.625 0
1.5 0.75 0
1.625 0.75 0
1.75 0.5 0
1.875 0.5 0
1.75 0.625 0
1.875 0.625 0
1.875 0.5 0
2 0.5 0
1.875 0.625 0
2 0.625 0
1.875 0.625 0
2 0.625 0
1.875 0.75 0
2 0.75 0
1.75 0.625 0
1.875 0.625 0
1.75 0.75 0
1.875 0.75 0
1.75 0.75 0
1.875 0.75 0
1.75 0.875 0
1.875 0.875 0
1.875 0.75 0
2 0.75 0
1.875 0.875 0
2 0.875 0
1.875 0.875 0
2 0.875 0
1.875 1 0
2 1 0
1.75 0.875 0
1.875 0.875 0
1.75 1 0
1.875 1 0
1.5 0.75 0
1.625 0.75 0
1.5 0.875 0
1.625 0.875 0
1.625 0.75 0
1.75 0.75 0
1.625 0.875 0
1.75 0.875 0
1.625 0.875 0
1.75 0.875 0
1.625 1 0
1.75 1 0
1.5 0.875 0
1.625 0.875 0
1.5 1 0
1.625 1 0
1 0.5 0
1.125 0.5 0
1 0.625 0
1.125 0.625 0
1.125 0.5 0
1.25 0.5 0
1.125 0.625 0
1.25 0.625 0
1.125 0.625 0
1.25 0.625 0
1.125 0.75 0
1.25 0.75 0
1 0.625 0
1.125 0.625 0
1 0.75 0
1.125 0.75 0
1.25 0.5 0
1.375 0.5 0
1.25 0.625 0
1.375 0.625 0
1.375 0.5 0
1.5 0.5 0
1.375 0.625 0
1.5 0.625 0
1.375 0.625 0
1.5 0.625 0
1.375 0.75 0
1.5 0.75 0
1.25 0.625 0
1.375 0.625 0
1.25 0.75 0
1.375 0.75 0
1.25 0.75 0
1.375 0.75 0
1.25 0.875 0
1.375 0.875 0
1.375 0.75 0
1.5 0.75 0
1.375 0.875 0
1.5 0.875 0
1.375 0.875 0
1.5 0.875 0
1.375 1 0
1.5 1 0
1.25 0.875 0
1.375 0.875 0
1.25 1 0
1.375 1 0
1 0.75 0
1.125 0.75 0
1 0.875 0
1.125 0.875 0
1.125 0.75 0
1.25 0.75 0
1.125 0.875 0
1.25 0.875 0
1.125 0.875 0
1.25 0.875 0
1.125 1 0
1.25 1 0
1 0.875 0
1.125 0.875 0
1 1 0
1.125 1 0
2 0 0
2.125 0 0
2 0.125 0
2.125 0.125 0
2.125 0 0
2.25 0 0
2.125 0.125 0
2.25 0.125 0
2.125 0.125 0
2.25 0.125 0
2.125 0.25 0
2.25 0.25 0
2 0.125 0
2.125 0.125 0
2 0.25 0
2.125 0.25 0
2.25 0 0
2.375 0 0
2.25 0.125 0
2.375 0.125 0
2.375 0 0
2.5 0 0
2.375 0.125 0
2.5 0.125 0
2.375 0.125 0
2.5 0.125 0
2.375 0.25 0
2.5 0.25 0
2.25 0.125 0
2.375 0.125 0
2.25 0.25 0
2.375 0.25 0
2.25 0.25 0
2.375 0.25 0
2.25 0.375 0
2.375 0.375 0
2.375 0.25 0
2.5 0.25 0
2.375 0.375 0
2.5 0.375 0
2.375 0.375 0
2.5 0.375 0
2.375 0.5 0
2.5 0.5 0
2.25 0.375 0
2.375 0.375 0
2.25 0.5 0
2.375 0.5 0
2 0.25 0
2.125 0.25 0
2 0.375 0
2.125 0.375 0
2.125 0.25 0
2.25 0.25 0
2.125 0.375 0
2.25 0.375 0
2.125 0.375 0
2.25 0.375 0
2.125 0.5 0
2.25 0.5 0
2 0.375 0
2.125 0.375 0
2 0.5 0
2.125 0.5 0
2.5 0 0
2.625 0 0
2.5 0.125 0
2.625 0.125 0
2.625 0 0
2.75 0 0
2.625 0.125 0
2.75 0.125 0
2.625 0.125 0
2.75 0.125 0
2.625 0.25 0
2.75 0.25 0
2.5 0.125 0
2.625 0.125 0
2.5 0.25 0
2.625 0.25 0
2.75 0 0
2.875 0 0
2.75 0.125 0
2.875 0.125 0
2.875 0 0
3 0 0
2.875 0.125 0
3 0.125 0
2.875 0.125 0
3 0.125 0
2.875 0.25 0
3 0.25 0
2.75 0.125 0
2.875 0.125 0
2.75 0.25 0
2.875 0.25 0
2.75 0.25 0
2.875 0.25 0
2.75 0.375 0
2.875 0.375 0
2.875 0.25 0
3 0.25 0
2.875 0.375 0
3 0.375 0
2.875 0.375 0
3 0.375 0
2.875 0.5 0
3 0.5 0
2.75 0.375 0
2.875 0.375 0
2.75 0.5 0
2.875 0.5 0
2.5 0.25 0
2.625 0.25 0
2.5 0.375 0
2.625 0.375 0
2.625 0.25 0
2.75 0.25 0
2.625 0.375 0
2.75 0.375 0
2.625 0.375 0
2.75 0.375 0
2.625 0.5 0
2.75 0.5 0
2.5 0.375 0
2.625 0.375 0
2.5 0.5 0
2.625 0.5 0
2.5 0.5 0
2.625 0.5 0
2.5 0.625 0
2.625 0.625 0
2.625 0.5 0
2.75 0.5 0
2.625 0.625 0
2.75 0.625 0
2.625 0.625 0
2.75 0.625 0
2.625 0.75 0
2.75 0.75 0
2.5 0.625 0
2.625 0.625 0
2.5 0.75 0
2.625 0.75 0
2.75 0.5 0
2.875 0.5 0
2.75 0.625 0
2.875 0.625 0
2.875 0.5 0
3 0.5 0
2.875 0.625 0
3 0.625 0
2.875 0.625 0
3 0.625 0
2.875 0.75 0
3 0.75 0
2.75 0.625 0
2.875 0.625 0
2.75 0.75 0
2.875 0.75 0
2.75 0.75 0
2.875 0.75 0
2.75 0.875 0
2.875 0.875 0
2.875 0.75 0
3 0.75 0
2.875 0.875 0
3 0.875 0
2.875 0.875 0
3 0.875 0
2.875 1 0
3 1 0
2.75 0.875 0
2.875 0.875 0
2.75 1 0
2.875 1 0
2.5 0.75 0
2.625 0.75 0
2.5 0.875 0
2.625 0.875 0
2.625 0.75 0
2.75 0.75 0
2.625 0.875 0
2.75 0.875 0
2.625 0.875 0
2.75 0.875 0
2.625 1 0
2.75 1 0
2.5 0.875 0
2.625 0.875 0
2.5 1 0
2.625 1 0
2 0.5 0
2.125 0.5 0
2 0.625 0
2.125 0.625 0
2.125 0.5 0
2.25 0.5 0
2.125 0.625 0
2.25 0.625 0
2.125 0.625 0
2.25 0.625 0
2.125 0.75 0
2.25 0.75 0
2 0.625 0
2.125 0.625 0
2 0.75 0
2.125 0.75 0
2.25 0.5 0
2.375 0.5 0
2.25 0.625 0
2.375 0.625 0
2.375 0.5 0
2.5 0.5 0
2.375 0.625 0
2.5 0.625 0
2.375 0.625 0
2.5 0.625 0
2.375 0.75 0
2.5 0.75 0
2.25 0.625 0
2.375 0.625 0
2.25 0.75 0
2.375 0.75 0
2.25 0.75 0
2.375 0.75 0
2.25 0.875 0
2.375 0.875 0
2.375 0.75 0
2.5 0.75 0
2.375 0.875 0
2.5 0.875 0
2.375 0.875 0
2.5 0.875 0
2.375 1 0
2.5 1 0
2.25 0.875 0
2.375 0.875 0
2.25 1 0
2.375 1 0
2 0.75 0
2.125 0.75 0
2 0.875 0
2.125 0.875 0
2.125 0.75 0
2.25 0.75 0
2.125 0.875 0
2.25 0.875 0
2.125 0.875 0
2.25 0.875 0
2.125 1 0
2.25 1 0
2 0.875 0
2.125 0.875 0
2 1 0
2.125 1 0
3 0 0
3.125 0 0
3 0.125 0
3.125 0.125 0
3.125 0 0
3.25 0 0
3.125 0.125 0
3.25 0.125 0
3.125 0.125 0
3.25 0.125 0
3.125 0.25 0
3.25 0.25 0
3 0.125 0
3.125 0.125 0
3 0.25 0
3.125 0.25 0
3.25 0 0
3.375 0 0
3.25 0.125 0
3.375 0.125 0
3.375 0 0
3.5 0 0
3.375 0.125 0
3.5 0.125 0
3.375 0.125 0
3.5 0.125 0
3.375 0.25 0
3.5 0.25 0
3.25 0.125 0
3.375 0.125 0
3.25 0.25 0
3.375 0.25 0
3.25 0.25 0
3.375 0.25 0
3.25 0.375 0
3.375 0.375 0
3.375 0.25 0
3.5 0.25 0
3.375 0.375 0
3.5 0.375 0
3.375 0.375 0
3.5 0.375 0
3.375 0.5 0
3.5 0.5 0
3.25 0.375 0
3.375 0.375 0
3.25 0.5 0
[...]
<CellData Scalars="attribute">
<DataArray type="Int32" Name="attribute" format="ascii">
1
1
1
1
1
1
1
1
1
1
1
1
1
1
1
1
1
1
1
1
1
1
1
1
1
1
1
1
1
1
1
1
1
1
1
1
1
1
1
1
1
1
1
1
1
1
1
1
1
1
1
1
1
1
1
1
1
1
1
1
1
1
1
1
1
1
1
1
1
1
1
1
1
1
1
1
1
1
1
1
1
1
1
1
1
1
1
1
1
1
1
1
1
1
1
1
1
1
1
1
1
1
1
1
1
1
1
1
1
1
1
1
1
1
1
1
1
1
1
1
1
1
1
1
1
1
1
1
1
1
1
1
1
1
1
1
1
1
1
1
1
1
1
1
1
1
1
1
1
1
1
1
1
1
1
1
1
1
1
1
1
1
1
1
1
1
1
1
1
1
1
1
1
1
1
1
1
1
1
1
1
1
1
1
1
1
1
1
1
1
1
1
1
1
1
1
1
1
1
1
1
1
1
1
1
1
1
1
1
1
1
1
1
1
1
1
1
1
1
1
1
1
1
1
1
1
1
1
1
1
1
1
1
1
1
1
1
1
1
1
1
1
1
1
1
1
1
1
1
1
1
1
1
1
1
1
2
2
2
2
2
2
2
2
2
2
2
2
2
2
2
2
2
2
2
2
2
2
2
2
2
2
2
2
2
2
2
2
2
2
2
2
2
2
2
2
2
2
2
2
2
2
2
2
2
2
2
2
2
2
2
2
2
2
2
2
2
2
2
2
2
2
2
2
2
2
2
2
2
2
2
2
2
2
2
2
2
2
2
2
2
2
2
2
2
2
2
2
2
2
2
2
2
2
2
2
2
2
2
2
2
2
2
2
2
2
2
2
2
2
2
2
2
2
2
2
2
2
2
2
2
2
2
2
2
2
2
2
2
2
2
2
2
2
2
2
2
2
2
2
2
2
2
2
2
2
2
2
2
2
2
2
2
2
2
2
2
2
2
2
2
2
2
2
2
2
2
2
2
2
2
2
2
2
2
2
2
2
2
2
2
2
2
2
2
2
2
2
2
2
2
2
2
2
2
2
2
2
2
2
2
2
2
2
2
2
2
2
2
2
2
2
2
2
2
2
2
2
2
2
2
2
2
2
2
2
2
2
2
2
2
2
2
2
2
2
2
2
2
2
2
2
2
2
2
2
2
2
2
2
2
2
</DataArray>
</CellData>
<PointData >
<DataArray type="Float64" Name="Pressure" NumberOfComponents="1" format="ascii" >
-0.000115581
-6.63346e-08
-0.000189135
-1.09807e-07
-6.63346e-08
1.62345e-12
-1.09807e-07
2.81132e-12
-1.09807e-07
2.81132e-12
-7.3718e-08
1.90909e-12
-0.000189135
-1.09807e-07
-0.000126091
-7.3718e-08
1.62345e-12
-2.56008e-17
2.81132e-12
-4.57058e-17
-2.56008e-17
4.11493e-22
-4.57058e-17
7.61635e-22
-4.57058e-17
7.61635e-22
-3.18233e-17
5.4466e-22
2.81132e-12
-4.57058e-17
1.90909e-12
-3.18233e-17
1.90909e-12
-3.18233e-17
9.7832e-13
-1.62612e-17
-3.18233e-17
5.4466e-22
-1.62612e-17
2.78605e-22
-1.62612e-17
2.78605e-22
-5.38032e-19
8.83529e-24
9.7832e-13
-1.62612e-17
3.44677e-14
-5.38032e-19
-0.000126091
-7.3718e-08
-6.3046e-05
-3.74335e-08
-7.3718e-08
1.90909e-12
-3.74335e-08
9.7832e-13
-3.74335e-08
9.7832e-13
-8.29002e-10
3.44677e-14
-6.3046e-05
-3.74335e-08
-1.0202e-09
-8.29002e-10
4.11493e-22
-3.43334e-27
7.61635e-22
-6.58581e-27
-3.43334e-27
4.94996e-32
-6.58581e-27
9.54808e-32
-6.58581e-27
9.54808e-32
-4.87836e-27
7.17408e-32
7.61635e-22
-6.58581e-27
5.4466e-22
-4.87836e-27
4.94996e-32
-1.73867e-37
9.54808e-32
-3.69661e-37
-1.73867e-37
3.80446e-42
-3.69661e-37
7.44864e-42
-3.69661e-37
7.44864e-42
-2.98803e-37
5.76789e-42
9.54808e-32
-3.69661e-37
7.17408e-32
-2.98803e-37
7.17408e-32
-2.98803e-37
3.72962e-32
-1.57543e-37
-2.98803e-37
5.76789e-42
-1.57543e-37
3.06302e-42
-1.57543e-37
3.06302e-42
-4.53971e-39
7.79834e-44
3.72962e-32
-1.57543e-37
1.06955e-33
-4.53971e-39
5.4466e-22
-4.87836e-27
2.78605e-22
-2.51071e-27
-4.87836e-27
7.17408e-32
-2.51071e-27
3.72962e-32
-2.51071e-27
3.72962e-32
-7.66527e-29
1.06955e-33
2.78605e-22
-2.51071e-27
8.83529e-24
-7.66527e-29
8.83529e-24
-7.66527e-29
-2.64696e-22
2.39123e-27
-7.66527e-29
1.06955e-33
2.39123e-27
-3.56645e-32
2.39123e-27
-3.56645e-32
4.86088e-27
-7.15511e-32
-2.64696e-22
2.39123e-27
-5.421e-22
4.86088e-27
1.06955e-33
-4.53971e-39
-3.56645e-32
1.50665e-37
-4.53971e-39
7.79834e-44
1.50665e-37
-2.9474e-42
1.50665e-37
-2.9474e-42
2.97998e-37
-5.75855e-42
-3.56645e-32
1.50665e-37
-7.15511e-32
2.97998e-37
-7.15511e-32
2.97998e-37
-9.70043e-32
3.7529e-37
2.97998e-37
-5.75855e-42
3.7529e-37
-7.55285e-42
3.7529e-37
-7.55285e-42
1.7766e-37
-3.8781e-42
-9.70043e-32
3.7529e-37
-5.06135e-32
1.7766e-37
-5.421e-22
4.86088e-27
-7.75207e-22
6.69788e-27
4.86088e-27
-7.15511e-32
6.69788e-27
-9.70043e-32
6.69788e-27
-9.70043e-32
3.51665e-27
-5.06135e-32
-7.75207e-22
6.69788e-27
-4.22309e-22
3.51665e-27
-1.0202e-09
-8.29002e-10
6.30444e-05
3.60956e-08
-8.29002e-10
3.44677e-14
3.60956e-08
-9.22815e-13
3.60956e-08
-9.22815e-13
7.33403e-08
-1.89384e-12
6.30444e-05
3.60956e-08
0.00012609
7.33403e-08
3.44677e-14
-5.38032e-19
-9.22815e-13
1.54034e-17
-5.38032e-19
8.83529e-24
1.54034e-17
-2.64696e-22
1.54034e-17
-2.64696e-22
3.16238e-17
-5.421e-22
-9.22815e-13
1.54034e-17
-1.89384e-12
3.16238e-17
-1.89384e-12
3.16238e-17
-2.8633e-12
4.65559e-17
3.16238e-17
-5.421e-22
4.65559e-17
-7.75207e-22
4.65559e-17
-7.75207e-22
2.63246e-17
-4.22309e-22
-2.8633e-12
4.65559e-17
-1.67669e-12
2.63246e-17
0.00012609
7.33403e-08
0.000189136
1.11042e-07
7.33403e-08
-1.89384e-12
1.11042e-07
-2.8633e-12
1.11042e-07
-2.8633e-12
6.76437e-08
-1.67669e-12
0.000189136
1.11042e-07
0.000115583
6.76437e-08
3.80446e-42
2.2041e-48
7.44864e-42
7.57207e-49
2.2041e-48
2.23564e-52
7.57207e-49
4.33835e-52
7.57207e-49
4.33835e-52
-1.48697e-48
3.38582e-52
7.44864e-42
7.57207e-49
5.76789e-42
-1.48697e-48
2.23564e-52
7.96721e-58
4.33835e-52
1.348e-57
7.96721e-58
1.06795e-62
1.348e-57
2.03515e-62
1.348e-57
2.03515e-62
9.30169e-58
1.57974e-62
4.33835e-52
1.348e-57
3.38582e-52
9.30169e-58
3.38582e-52
9.30169e-58
1.82477e-52
4.84806e-58
9.30169e-58
1.57974e-62
4.84806e-58
8.56557e-63
4.84806e-58
8.56557e-63
8.14711e-60
1.62941e-64
1.82477e-52
4.84806e-58
4.04279e-54
8.14711e-60
5.76789e-42
-1.48697e-48
3.06302e-42
-1.0037e-48
-1.48697e-48
3.38582e-52
-1.0037e-48
1.82477e-52
-1.0037e-48
1.82477e-52
-5.59391e-50
4.04279e-54
3.06302e-42
-1.0037e-48
7.79834e-44
-5.59391e-50
1.06795e-62
5.2579e-68
2.03515e-62
9.42448e-68
5.2579e-68
4.059e-73
9.42448e-68
7.62387e-73
9.42448e-68
7.62387e-73
6.92367e-68
5.87713e-73
2.03515e-62
9.42448e-68
1.57974e-62
6.92367e-68
4.059e-73
2.06169e-78
7.62387e-73
3.76432e-78
2.06169e-78
1.19067e-83
3.76432e-78
2.21797e-83
3.76432e-78
2.21797e-83
2.82767e-78
1.70325e-83
7.62387e-73
3.76432e-78
5.87713e-73
2.82767e-78
5.87713e-73
2.82767e-78
3.19106e-73
1.52023e-78
2.82767e-78
1.70325e-83
1.52023e-78
9.24998e-84
1.52023e-78
9.24998e-84
2.18637e-80
1.29582e-85
3.19106e-73
1.52023e-78
5.19877e-75
2.18637e-80
1.57974e-62
6.92367e-68
8.56557e-63
3.68653e-68
6.92367e-68
5.87713e-73
3.68653e-68
3.19106e-73
3.68653e-68
3.19106e-73
5.92313e-70
5.19877e-75
8.56557e-63
3.68653e-68
1.62941e-64
5.92313e-70
1.62941e-64
5.92313e-70
-8.33104e-63
-3.60272e-68
5.92313e-70
5.19877e-75
-3.60272e-68
-3.11676e-73
-3.60272e-68
-3.11676e-73
-6.92594e-68
-5.87508e-73
-8.33104e-63
-3.60272e-68
-1.57874e-62
-6.92594e-68
5.19877e-75
2.18637e-80
-3.11676e-73
-1.48931e-78
2.18637e-80
1.29582e-85
-1.48931e-78
-9.06561e-84
-1.48931e-78
-9.06561e-84
-2.82811e-78
-1.70295e-83
-3.11676e-73
-1.48931e-78
-5.87508e-73
-2.82811e-78
-5.87508e-73
-2.82811e-78
-7.69402e-73
-3.79692e-78
-2.82811e-78
-1.70295e-83
-3.79692e-78
-2.23579e-83
-3.79692e-78
-2.23579e-83
-2.08491e-78
-1.2033e-83
-7.69402e-73
-3.79692e-78
-4.1087e-73
-2.08491e-78
-1.57874e-62
-6.92594e-68
-2.05665e-62
-9.51796e-68
-6.92594e-68
-5.87508e-73
-9.51796e-68
-7.69402e-73
-9.51796e-68
-7.69402e-73
-5.32534e-68
-4.1087e-73
-2.05665e-62
-9.51796e-68
-1.08312e-62
-5.32534e-68
7.79834e-44
-5.59391e-50
-2.9474e-42
9.16219e-49
-5.59391e-50
4.04279e-54
9.16219e-49
-1.76592e-52
9.16219e-49
-1.76592e-52
1.45926e-48
-3.38231e-52
-2.9474e-42
9.16219e-49
-5.75855e-42
1.45926e-48
4.04279e-54
8.14711e-60
-1.76592e-52
-4.73335e-58
8.14711e-60
1.62941e-64
-4.73335e-58
-8.33104e-63
-4.73335e-58
-8.33104e-63
-9.31034e-58
-1.57874e-62
-1.76592e-52
-4.73335e-58
-3.38231e-52
-9.31034e-58
-3.38231e-52
-9.31034e-58
-4.3911e-52
-1.36321e-57
-9.31034e-58
-1.57874e-62
-1.36321e-57
-2.05665e-62
-1.36321e-57
-2.05665e-62
-8.08144e-58
-1.08312e-62
-4.3911e-52
-1.36321e-57
-2.2727e-52
-8.08144e-58
-5.75855e-42
1.45926e-48
-7.55285e-42
-7.60964e-49
1.45926e-48
-3.38231e-52
-7.60964e-49
-4.3911e-52
-7.60964e-49
-4.3911e-52
-2.22567e-48
-2.2727e-52
-7.55285e-42
-7.60964e-49
-3.8781e-42
-2.22567e-48
1.19067e-83
5.61316e-89
2.21797e-83
1.03246e-88
5.61316e-89
2.66563e-94
1.03246e-88
4.94522e-94
1.03246e-88
4.94522e-94
7.83799e-89
3.79303e-94
2.21797e-83
1.03246e-88
1.70325e-83
7.83799e-89
2.66563e-94
1.12393e-99
4.94522e-94
2.07353e-99
1.12393e-99
4.56465e-105
2.07353e-99
8.4515e-105
2.07353e-99
8.4515e-105
1.58291e-99
6.48326e-105
4.94522e-94
2.07353e-99
3.79303e-94
1.58291e-99
3.79303e-94
1.58291e-99
2.06035e-94
8.57967e-100
1.58291e-99
6.48326e-105
8.57967e-100
3.52277e-105
8.57967e-100
3.52277e-105
9.54112e-102
3.70138e-107
2.06035e-94
8.57967e-100
2.49466e-96
9.54112e-102
1.70325e-83
7.83799e-89
9.24998e-84
4.23606e-89
7.83799e-89
3.79303e-94
4.23606e-89
2.06035e-94
4.23606e-89
2.06035e-94
5.37214e-91
2.49466e-96
9.24998e-84
4.23606e-89
1.29582e-85
5.37214e-91
4.56465e-105
1.70236e-110
8.4515e-105
3.14426e-110
1.70236e-110
6.01839e-116
3.14426e-110
1.11318e-115
3.14426e-110
1.11318e-115
2.40779e-110
8.54465e-116
8.4515e-105
3.14426e-110
6.48326e-105
2.40779e-110
6.01839e-116
1.98099e-121
1.11318e-115
3.66003e-121
1.98099e-121
6.14677e-127
3.66003e-121
1.13624e-126
3.66003e-121
1.13624e-126
2.80796e-121
8.72776e-127
1.11318e-115
3.66003e-121
8.54465e-116
2.80796e-121
8.54465e-116
2.80796e-121
4.64423e-116
1.52567e-121
2.80796e-121
8.72776e-127
1.52567e-121
4.74476e-127
1.52567e-121
4.74476e-127
1.29728e-123
3.78128e-129
4.64423e-116
1.52567e-121
4.246e-118
1.29728e-123
6.48326e-105
2.40779e-110
3.52277e-105
1.30713e-110
2.40779e-110
8.54465e-116
1.30713e-110
4.64423e-116
1.30713e-110
4.64423e-116
1.27166e-112
4.246e-118
3.52277e-105
1.30713e-110
3.70138e-107
1.27166e-112
3.70138e-107
1.27166e-112
-3.47033e-105
-1.28915e-110
1.27166e-112
4.246e-118
-1.28915e-110
-4.58411e-116
-1.28915e-110
-4.58411e-116
-2.40782e-110
-8.54442e-116
-3.47033e-105
-1.28915e-110
-6.48297e-105
-2.40782e-110
4.246e-118
1.29728e-123
-4.58411e-116
-1.50732e-121
1.29728e-123
3.78128e-129
-1.50732e-121
-4.69124e-127
-1.50732e-121
-4.69124e-127
-2.80796e-121
-8.72758e-127
-4.58411e-116
-1.50732e-121
-8.54442e-116
-2.80796e-121
-8.54442e-116
-2.80796e-121
-1.11913e-115
-3.67832e-121
-2.80796e-121
-8.72758e-127
-3.67832e-121
-1.14153e-126
-3.67832e-121
-1.14153e-126
-1.99394e-121
-6.18429e-127
-1.11913e-115
-3.67832e-121
-6.06053e-116
-1.99394e-121
-6.48297e-105
-2.40782e-110
-8.50324e-105
-3.16228e-110
-2.40782e-110
-8.54442e-116
-3.16228e-110
-1.11913e-115
-3.16228e-110
-1.11913e-115
-1.71512e-110
-6.06053e-116
-8.50324e-105
-3.16228e-110
-4.60133e-105
-1.71512e-110
1.29582e-85
5.37214e-91
-9.06561e-84
-4.16011e-89
5.37214e-91
2.49466e-96
-4.16011e-89
-2.02495e-94
-4.16011e-89
-2.02495e-94
-7.8386e-89
-3.79269e-94
-9.06561e-84
-4.16011e-89
-1.70295e-83
-7.8386e-89
2.49466e-96
9.54112e-102
-2.02495e-94
-8.44478e-100
9.54112e-102
3.70138e-107
-8.44478e-100
-3.47033e-105
-8.44478e-100
-3.47033e-105
-1.58297e-99
-6.48297e-105
-2.02495e-94
-8.44478e-100
-3.79269e-94
-1.58297e-99
-3.79269e-94
-1.58297e-99
-4.97989e-94
-2.08717e-99
-1.58297e-99
-6.48297e-105
-2.08717e-99
-8.50324e-105
-2.08717e-99
-8.50324e-105
-1.13359e-99
-4.60133e-105
-4.97989e-94
-2.08717e-99
-2.69022e-94
-1.13359e-99
-1.70295e-83
-7.8386e-89
-2.23579e-83
-1.04025e-88
-7.8386e-89
-3.79269e-94
-1.04025e-88
-4.97989e-94
-1.04025e-88
-4.97989e-94
-5.66845e-89
-2.69022e-94
-2.23579e-83
-1.04025e-88
-1.2033e-83
-5.66845e-89
6.14677e-127
1.78562e-132
1.13624e-126
3.29891e-132
1.78562e-132
4.87866e-138
3.29891e-132
9.01437e-138
3.29891e-132
9.01437e-138
2.5339e-132
6.92855e-138
1.13624e-126
3.29891e-132
8.72776e-127
2.5339e-132
4.87866e-138
1.24987e-143
9.01437e-138
2.30867e-143
1.24987e-143
3.00578e-149
2.30867e-143
5.55186e-149
2.30867e-143
5.55186e-149
1.77469e-143
4.26944e-149
9.01437e-138
2.30867e-143
6.92855e-138
1.77469e-143
6.92855e-138
1.77469e-143
3.76708e-138
9.64849e-144
1.77469e-143
4.26944e-149
9.64849e-144
2.32139e-149
9.64849e-144
2.32139e-149
6.26504e-146
1.41018e-151
3.76708e-138
9.64849e-144
2.61998e-140
6.26504e-146
8.72776e-127
2.5339e-132
4.74476e-127
1.37735e-132
2.5339e-132
6.92855e-138
1.37735e-132
3.76708e-138
1.37735e-132
3.76708e-138
1.02339e-134
2.61998e-140
4.74476e-127
1.37735e-132
3.78128e-129
1.02339e-134
3.00578e-149
6.77068e-155
5.55186e-149
1.25032e-154
6.77068e-155
1.42707e-160
1.25032e-154
2.63507e-160
1.25032e-154
2.63507e-160
9.61659e-155
2.02723e-160
5.55186e-149
1.25032e-154
4.26944e-149
9.61659e-155
1.42707e-160
2.80635e-166
2.63507e-160
5.18104e-166
2.80635e-166
5.13194e-172
5.18104e-166
9.47345e-172
5.18104e-166
9.47345e-172
3.98648e-166
7.2905e-172
2.63507e-160
5.18104e-166
2.02723e-160
3.98648e-166
2.02723e-160
3.98648e-166
1.10222e-160
2.16739e-166
3.98648e-166
7.2905e-172
2.16739e-166
3.96366e-172
2.16739e-166
3.96366e-172
1.07579e-168
1.84031e-174
1.10222e-160
2.16739e-166
5.8521e-163
1.07579e-168
4.26944e-149
9.61659e-155
2.32139e-149
5.22854e-155
9.61659e-155
2.02723e-160
5.22854e-155
1.10222e-160
5.22854e-155
1.10222e-160
2.96777e-157
5.8521e-163
2.32139e-149
5.22854e-155
1.41018e-151
2.96777e-157
1.41018e-151
2.96777e-157
-2.30142e-149
-5.18651e-155
2.96777e-157
5.8521e-163
-5.18651e-155
-1.09393e-160
-5.18651e-155
-1.09393e-160
-9.61635e-155
-2.02717e-160
-2.30142e-149
-5.18651e-155
-4.26933e-149
-9.61635e-155
5.8521e-163
1.07579e-168
-1.09393e-160
-2.15215e-166
1.07579e-168
1.84031e-174
-2.15215e-166
-3.93757e-172
-2.15215e-166
-3.93757e-172
-3.98636e-166
-7.29026e-172
-1.09393e-160
-2.15215e-166
-2.02717e-160
-3.98636e-166
-2.02717e-160
-3.98636e-166
-2.64322e-160
-5.196e-166
-3.98636e-166
-7.29026e-172
-5.196e-166
-9.49897e-172
-5.196e-166
-9.49897e-172
-2.81693e-166
-5.15002e-172
-2.64322e-160
-5.196e-166
-1.43284e-160
-2.81693e-166
-4.26933e-149
-9.61635e-155
-5.57154e-149
-1.25446e-154
-9.61635e-155
-2.02717e-160
-1.25446e-154
-2.64322e-160
-1.25446e-154
-2.64322e-160
-6.8e-155
-1.43284e-160
-5.57154e-149
-1.25446e-154
-3.01972e-149
-6.8e-155
3.78128e-129
1.02339e-134
-4.69124e-127
-1.36287e-132
1.02339e-134
2.61998e-140
-1.36287e-132
-3.72999e-138
-1.36287e-132
-3.72999e-138
-2.53387e-132
-6.9284e-138
-4.69124e-127
-1.36287e-132
-8.72758e-127
-2.53387e-132
2.61998e-140
6.26504e-146
-3.72999e-138
-9.55981e-144
6.26504e-146
1.41018e-151
-9.55981e-144
-2.30142e-149
-9.55981e-144
-2.30142e-149
-1.77466e-143
-4.26933e-149
-3.72999e-138
-9.55981e-144
-6.9284e-138
-1.77466e-143
-6.9284e-138
-1.77466e-143
-9.05101e-138
-2.31744e-143
-1.77466e-143
-4.26933e-149
-2.31744e-143
-5.57154e-149
-2.31744e-143
-5.57154e-149
-1.25608e-143
-3.01972e-149
-9.05101e-138
-2.31744e-143
-4.90461e-138
-1.25608e-143
-8.72758e-127
-2.53387e-132
-1.14153e-126
-3.31328e-132
-2.53387e-132
-6.9284e-138
-3.31328e-132
-9.05101e-138
-3.31328e-132
-9.05101e-138
-1.79579e-132
-4.90461e-138
-1.14153e-126
-3.31328e-132
-6.18429e-127
-1.79579e-132
5.13194e-172
8.68053e-178
9.47345e-172
1.60218e-177
8.68053e-178
1.34774e-183
1.60218e-177
2.48726e-183
1.60218e-177
2.48726e-183
1.23315e-177
1.91461e-183
9.47345e-172
1.60218e-177
7.2905e-172
1.23315e-177
1.34774e-183
1.89719e-189
2.48726e-183
3.50085e-189
1.89719e-189
2.37089e-195
3.50085e-189
4.37449e-195
3.50085e-189
4.37449e-195
2.6951e-189
3.368e-195
2.48726e-183
3.50085e-189
1.91461e-183
2.6951e-189
1.91461e-183
2.6951e-189
1.04083e-183
1.46506e-189
2.6951e-189
3.368e-195
1.46506e-189
1.83076e-195
1.46506e-189
1.83076e-195
5.5676e-192
6.51017e-198
1.04083e-183
1.46506e-189
4.22816e-186
5.5676e-192
7.2905e-172
1.23315e-177
3.96366e-172
6.70399e-178
1.23315e-177
1.91461e-183
6.70399e-178
1.04083e-183
6.70399e-178
1.04083e-183
2.91098e-180
4.22816e-186
3.96366e-172
6.70399e-178
1.84031e-174
2.91098e-180
2.37089e-195
2.52211e-201
4.37449e-195
4.65302e-201
2.52211e-201
2.04792e-207
4.65302e-201
3.77781e-207
4.65302e-201
3.77781e-207
3.58273e-201
2.90905e-207
4.37449e-195
4.65302e-201
3.368e-195
3.58273e-201
2.04792e-207
7.13847e-214
3.77781e-207
1.31671e-213
7.13847e-214
-1.45471e-219
1.31671e-213
-2.68301e-219
1.31671e-213
-2.68301e-219
1.01398e-213
-2.06628e-219
3.77781e-207
1.31671e-213
2.90905e-207
1.01398e-213
2.90905e-207
1.01398e-213
1.58113e-207
5.51091e-214
1.01398e-213
-2.06628e-219
5.51091e-214
-1.12295e-219
5.51091e-214
-1.12295e-219
1.60659e-216
-3.06476e-222
1.58113e-207
5.51091e-214
4.92434e-210
1.60659e-216
3.368e-195
3.58273e-201
1.83076e-195
1.94738e-201
3.58273e-201
2.90905e-207
1.94738e-201
1.58113e-207
1.94738e-201
1.58113e-207
6.48009e-204
4.92434e-210
1.83076e-195
1.94738e-201
6.51017e-198
6.48009e-204
6.51017e-198
6.48009e-204
-1.82151e-195
-1.93817e-201
6.48009e-204
4.92434e-210
-1.93817e-201
-1.57413e-207
-1.93817e-201
-1.57413e-207
-3.58258e-201
-2.90893e-207
-1.82151e-195
-1.93817e-201
-3.36786e-195
-3.58258e-201
4.92434e-210
1.60659e-216
-1.57413e-207
-5.48807e-214
1.60659e-216
-3.06476e-222
-5.48807e-214
1.11859e-219
-5.48807e-214
1.11859e-219
-1.01394e-213
2.06619e-219
-1.57413e-207
-5.48807e-214
-2.90893e-207
-1.01394e-213
-2.90893e-207
-1.01394e-213
-3.78454e-207
-1.3189e-213
-1.01394e-213
2.06619e-219
-1.3189e-213
2.68718e-219
-1.3189e-213
2.68718e-219
-7.15398e-214
1.45766e-219
-3.78454e-207
-1.3189e-213
-2.05269e-207
-7.15398e-214
-3.36786e-195
-3.58258e-201
-4.38345e-195
-4.66191e-201
-3.58258e-201
-2.90893e-207
-4.66191e-201
-3.78454e-207
-4.66191e-201
-3.78454e-207
-2.52841e-201
-2.05269e-207
-4.38345e-195
-4.66191e-201
-2.37723e-195
-2.52841e-201
1.84031e-174
2.91098e-180
-3.93757e-172
-6.66271e-178
2.91098e-180
4.22816e-186
-6.66271e-178
-1.03483e-183
-6.66271e-178
-1.03483e-183
-1.2331e-177
-1.91454e-183
-3.93757e-172
-6.66271e-178
-7.29026e-172
-1.2331e-177
4.22816e-186
5.5676e-192
-1.03483e-183
-1.45716e-189
5.5676e-192
6.51017e-198
-1.45716e-189
-1.82151e-195
-1.45716e-189
-1.82151e-195
-2.695e-189
-3.36786e-195
-1.03483e-183
-1.45716e-189
-1.91454e-183
-2.695e-189
-1.91454e-183
-2.695e-189
-2.4931e-183
-3.50853e-189
-2.695e-189
-3.36786e-195
-3.50853e-189
-4.38345e-195
-3.50853e-189
-4.38345e-195
-1.90262e-189
-2.37723e-195
-2.4931e-183
-3.50853e-189
-1.35187e-183
-1.90262e-189
-7.29026e-172
-1.2331e-177
-9.49897e-172
-1.60621e-177
-1.2331e-177
-1.91454e-183
-1.60621e-177
-2.4931e-183
-1.60621e-177
-2.4931e-183
-8.70907e-178
-1.35187e-183
-9.49897e-172
-1.60621e-177
-5.15002e-172
-8.70907e-178
-1.45471e-219
-3.99357e-225
-2.68301e-219
-7.36497e-225
-3.99357e-225
-5.97152e-231
-7.36497e-225
-1.10118e-230
-7.36497e-225
-1.10118e-230
-5.67233e-225
-8.48148e-231
-2.68301e-219
-7.36497e-225
-2.06628e-219
-5.67233e-225
-5.97152e-231
-6.24681e-237
-1.10118e-230
-1.15186e-236
-6.24681e-237
-4.02343e-243
-1.15186e-236
-7.41835e-243
-1.15186e-236
-7.41835e-243
-8.87221e-237
-5.71421e-243
-1.10118e-230
-1.15186e-236
-8.48148e-231
-8.87221e-237
-8.48148e-231
-8.87221e-237
-4.60896e-231
-4.82108e-237
-8.87221e-237
-5.71421e-243
-4.82108e-237
-3.10491e-243
-4.82108e-237
-3.10491e-243
-1.08063e-239
-6.51978e-246
-4.60896e-231
-4.82108e-237
-1.10298e-233
-1.08063e-239
-2.06628e-219
-5.67233e-225
-1.12295e-219
-3.08257e-225
-5.67233e-225
-8.48148e-231
-3.08257e-225
-4.60896e-231
-3.08257e-225
-4.60896e-231
-7.87726e-228
-1.10298e-233
-1.12295e-219
-3.08257e-225
-3.06476e-222
-7.87726e-228
-4.02343e-243
4.98643e-250
-7.41835e-243
9.19335e-250
4.98643e-250
5.78737e-255
9.19335e-250
1.06693e-254
9.19335e-250
1.06693e-254
7.08174e-250
8.21895e-255
-7.41835e-243
9.19335e-250
-5.71421e-243
7.08174e-250
5.78737e-255
9.36301e-261
1.06693e-254
1.72602e-260
9.36301e-261
8.97374e-267
1.72602e-260
1.65417e-266
1.72602e-260
1.65417e-266
1.32965e-260
1.27434e-266
1.06693e-254
1.72602e-260
8.21895e-255
1.32965e-260
8.21895e-255
1.32965e-260
4.46556e-255
7.22405e-261
1.32965e-260
1.27434e-266
7.22405e-261
6.92328e-267
7.22405e-261
6.92328e-267
1.24856e-263
1.12187e-269
4.46556e-255
7.22405e-261
8.2337e-258
1.24856e-263
-5.71421e-243
7.08174e-250
-3.10491e-243
3.84784e-250
7.08174e-250
8.21895e-255
3.84784e-250
4.46556e-255
3.84784e-250
4.46556e-255
7.56986e-253
8.2337e-258
-3.10491e-243
3.84784e-250
-6.51978e-246
7.56986e-253
-6.51978e-246
7.56986e-253
3.09561e-243
-3.83703e-250
7.56986e-253
8.2337e-258
-3.83703e-250
-4.45379e-255
-3.83703e-250
-4.45379e-255
-7.08139e-250
-8.21853e-255
3.09561e-243
-3.83703e-250
5.71392e-243
-7.08139e-250
8.2337e-258
1.24856e-263
-4.45379e-255
-7.20619e-261
1.24856e-263
1.12187e-269
-7.20619e-261
-6.90721e-267
-7.20619e-261
-6.90721e-267
-1.32958e-260
-1.27427e-266
-4.45379e-255
-7.20619e-261
-8.21853e-255
-1.32958e-260
-8.21853e-255
-1.32958e-260
-1.06803e-254
-1.72767e-260
-1.32958e-260
-1.27427e-266
-1.72767e-260
-1.65564e-266
-1.72767e-260
-1.65564e-266