<VTKFile type="UnstructuredGrid" version="0.1" byte_order="LittleEndian">
<UnstructuredGrid>
<Piece NumberOfPoints="2048" NumberOfCells="512">
<Points>
<DataArray type="Float64" NumberOfComponents="3" format="ascii">
0 0 0
0.125 0 0
0 0.125 0
0.125 0.125 0
0.125 0 0
0.25 0 0
0.125 0.125 0
0.25 0.125 0
0.125 0.125 0
0.25 0.125 0
0.125 0.25 0
0.25 0.25 0
0 0.125 0
0.125 0.125 0
0 0.25 0
0.125 0.25 0
0.25 0 0
0.375 0 0
0.25 0.125 0
0.375 0.125 0
0.375 0 0
0.5 0 0
0.375 0.125 0
0.5 0.125 0
0.375 0.125 0
0.5 0.125 0
0.375 0.25 0
0.5 0.25 0
0.25 0.125 0
0.375 0.125 0
0.25 0.25 0
0.375 0.25 0
0.25 0.25 0
0.375 0.25 0
0.25 0.375 0
0.375 0.375 0
0.375 0.25 0
0.5 0.25 0
0.375 0.375 0
0.5 0.375 0
0.375 0.375 0
0.5 0.375 0
0.375 0.5 0
0.5 0.5 0
0.25 0.375 0
0.375 0.375 0
0.25 0.5 0
0.375 0.5 0
0 0.25 0
0.125 0.25 0
0 0.375 0
0.125 0.375 0
0.125 0.25 0
0.25 0.25 0
0.125 0.375 0
0.25 0.375 0
0.125 0.375 0
0.25 0.375 0
0.125 0.5 0
0.25 0.5 0
0 0.375 0
0.125 0.375 0
0 0.5 0
0.125 0.5 0
0.5 0 0
0.625 0 0
0.5 0.125 0
0.625 0.125 0
0.625 0 0
0.75 0 0
0.625 0.125 0
0.75 0.125 0
0.625 0.125 0
0.75 0.125 0
0.625 0.25 0
0.75 0.25 0
0.5 0.125 0
0.625 0.125 0
0.5 0.25 0
0.625 0.25 0
0.75 0 0
0.875 0 0
0.75 0.125 0
0.875 0.125 0
0.875 0 0
1 0 0
0.875 0.125 0
1 0.125 0
0.875 0.125 0
1 0.125 0
0.875 0.25 0
1 0.25 0
0.75 0.125 0
0.875 0.125 0
0.75 0.25 0
0.875 0.25 0
0.75 0.25 0
0.875 0.25 0
0.75 0.375 0
0.875 0.375 0
0.875 0.25 0
1 0.25 0
0.875 0.375 0
1 0.375 0
0.875 0.375 0
1 0.375 0
0.875 0.5 0
1 0.5 0
0.75 0.375 0
0.875 0.375 0
0.75 0.5 0
0.875 0.5 0
0.5 0.25 0
0.625 0.25 0
0.5 0.375 0
0.625 0.375 0
0.625 0.25 0
0.75 0.25 0
0.625 0.375 0
0.75 0.375 0
0.625 0.375 0
0.75 0.375 0
0.625 0.5 0
0.75 0.5 0
0.5 0.375 0
0.625 0.375 0
0.5 0.5 0
0.625 0.5 0
0.5 0.5 0
0.625 0.5 0
0.5 0.625 0
0.625 0.625 0
0.625 0.5 0
0.75 0.5 0
0.625 0.625 0
0.75 0.625 0
0.625 0.625 0
0.75 0.625 0
0.625 0.75 0
0.75 0.75 0
0.5 0.625 0
0.625 0.625 0
0.5 0.75 0
0.625 0.75 0
0.75 0.5 0
0.875 0.5 0
0.75 0.625 0
0.875 0.625 0
0.875 0.5 0
1 0.5 0
0.875 0.625 0
1 0.625 0
0.875 0.625 0
1 0.625 0
0.875 0.75 0
1 0.75 0
0.75 0.625 0
0.875 0.625 0
0.75 0.75 0
0.875 0.75 0
0.75 0.75 0
0.875 0.75 0
0.75 0.875 0
0.875 0.875 0
0.875 0.75 0
1 0.75 0
0.875 0.875 0
1 0.875 0
0.875 0.875 0
1 0.875 0
0.875 1 0
1 1 0
0.75 0.875 0
0.875 0.875 0
0.75 1 0
0.875 1 0
0.5 0.75 0
0.625 0.75 0
0.5 0.875 0
0.625 0.875 0
0.625 0.75 0
0.75 0.75 0
0.625 0.875 0
0.75 0.875 0
0.625 0.875 0
0.75 0.875 0
0.625 1 0
0.75 1 0
0.5 0.875 0
0.625 0.875 0
0.5 1 0
0.625 1 0
0 0.5 0
0.125 0.5 0
0 0.625 0
0.125 0.625 0
0.125 0.5 0
0.25 0.5 0
0.125 0.625 0
0.25 0.625 0
0.125 0.625 0
0.25 0.625 0
0.125 0.75 0
0.25 0.75 0
0 0.625 0
0.125 0.625 0
0 0.75 0
0.125 0.75 0
0.25 0.5 0
0.375 0.5 0
0.25 0.625 0
0.375 0.625 0
0.375 0.5 0
0.5 0.5 0
0.375 0.625 0
0.5 0.625 0
0.375 0.625 0
0.5 0.625 0
0.375 0.75 0
0.5 0.75 0
0.25 0.625 0
0.375 0.625 0
0.25 0.75 0
0.375 0.75 0
0.25 0.75 0
0.375 0.75 0
0.25 0.875 0
0.375 0.875 0
0.375 0.75 0
0.5 0.75 0
0.375 0.875 0
0.5 0.875 0
0.375 0.875 0
0.5 0.875 0
0.375 1 0
0.5 1 0
0.25 0.875 0
0.375 0.875 0
0.25 1 0
0.375 1 0
0 0.75 0
0.125 0.75 0
0 0.875 0
0.125 0.875 0
0.125 0.75 0
0.25 0.75 0
0.125 0.875 0
0.25 0.875 0
0.125 0.875 0
0.25 0.875 0
0.125 1 0
0.25 1 0
0 0.875 0
0.125 0.875 0
0 1 0
0.125 1 0
1 0 0
1.125 0 0
1 0.125 0
1.125 0.125 0
1.125 0 0
1.25 0 0
1.125 0.125 0
1.25 0.125 0
1.125 0.125 0
1.25 0.125 0
1.125 0.25 0
1.25 0.25 0
1 0.125 0
1.125 0.125 0
1 0.25 0
1.125 0.25 0
1.25 0 0
1.375 0 0
1.25 0.125 0
1.375 0.125 0
1.375 0 0
1.5 0 0
1.375 0.125 0
1.5 0.125 0
1.375 0.125 0
1.5 0.125 0
1.375 0.25 0
1.5 0.25 0
1.25 0.125 0
1.375 0.125 0
1.25 0.25 0
1.375 0.25 0
1.25 0.25 0
1.375 0.25 0
1.25 0.375 0
1.375 0.375 0
1.375 0.25 0
1.5 0.25 0
1.375 0.375 0
1.5 0.375 0
1.375 0.375 0
1.5 0.375 0
1.375 0.5 0
1.5 0.5 0
1.25 0.375 0
1.375 0.375 0
1.25 0.5 0
1.375 0.5 0
1 0.25 0
1.125 0.25 0
1 0.375 0
1.125 0.375 0
1.125 0.25 0
1.25 0.25 0
1.125 0.375 0
1.25 0.375 0
1.125 0.375 0
1.25 0.375 0
1.125 0.5 0
1.25 0.5 0
1 0.375 0
1.125 0.375 0
1 0.5 0
1.125 0.5 0
1.5 0 0
1.625 0 0
1.5 0.125 0
1.625 0.125 0
1.625 0 0
1.75 0 0
1.625 0.125 0
1.75 0.125 0
1.625 0.125 0
1.75 0.125 0
1.625 0.25 0
1.75 0.25 0
1.5 0.125 0
1.625 0.125 0
1.5 0.25 0
1.625 0.25 0
1.75 0 0
1.875 0 0
1.75 0.125 0
1.875 0.125 0
1.875 0 0
2 0 0
1.875 0.125 0
2 0.125 0
1.875 0.125 0
2 0.125 0
1.875 0.25 0
2 0.25 0
1.75 0.125 0
1.875 0.125 0
1.75 0.25 0
1.875 0.25 0
1.75 0.25 0
1.875 0.25 0
1.75 0.375 0
1.875 0.375 0
1.875 0.25 0
2 0.25 0
1.875 0.375 0
2 0.375 0
1.875 0.375 0
2 0.375 0
1.875 0.5 0
2 0.5 0
1.75 0.375 0
1.875 0.375 0
1.75 0.5 0
1.875 0.5 0
1.5 0.25 0
1.625 0.25 0
1.5 0.375 0
1.625 0.375 0
1.625 0.25 0
1.75 0.25 0
1.625 0.375 0
1.75 0.375 0
1.625 0.375 0
1.75 0.375 0
1.625 0.5 0
1.75 0.5 0
1.5 0.375 0
1.625 0.375 0
1.5 0.5 0
1.625 0.5 0
1.5 0.5 0
1.625 0.5 0
1.5 0.625 0
1.625 0.625 0
1.625 0.5 0
1.75 0.5 0
1.625 0.625 0
1.75 0.625 0
1.625 0.625 0
1.75 0.625 0
1.625 0.75 0
1.75 0.75 0
1.5 0.625 0
1.625 0.625 0
1.5 0.75 0
1.625 0.75 0
1.75 0.5 0
1.875 0.5 0
1.75 0.625 0
1.875 0.625 0
1.875 0.5 0
2 0.5 0
1.875 0.625 0
2 0.625 0
1.875 0.625 0
2 0.625 0
1.875 0.75 0
2 0.75 0
1.75 0.625 0
1.875 0.625 0
1.75 0.75 0
1.875 0.75 0
1.75 0.75 0
1.875 0.75 0
1.75 0.875 0
1.875 0.875 0
1.875 0.75 0
2 0.75 0
1.875 0.875 0
2 0.875 0
1.875 0.875 0
2 0.875 0
1.875 1 0
2 1 0
1.75 0.875 0
1.875 0.875 0
1.75 1 0
1.875 1 0
1.5 0.75 0
1.625 0.75 0
1.5 0.875 0
1.625 0.875 0
1.625 0.75 0
1.75 0.75 0
1.625 0.875 0
1.75 0.875 0
1.625 0.875 0
1.75 0.875 0
1.625 1 0
1.75 1 0
1.5 0.875 0
1.625 0.875 0
1.5 1 0
1.625 1 0
1 0.5 0
1.125 0.5 0
1 0.625 0
1.125 0.625 0
1.125 0.5 0
1.25 0.5 0
1.125 0.625 0
1.25 0.625 0
1.125 0.625 0
1.25 0.625 0
1.125 0.75 0
1.25 0.75 0
1 0.625 0
1.125 0.625 0
1 0.75 0
1.125 0.75 0
1.25 0.5 0
1.375 0.5 0
1.25 0.625 0
1.375 0.625 0
1.375 0.5 0
1.5 0.5 0
1.375 0.625 0
1.5 0.625 0
1.375 0.625 0
1.5 0.625 0
1.375 0.75 0
1.5 0.75 0
1.25 0.625 0
1.375 0.625 0
1.25 0.75 0
1.375 0.75 0
1.25 0.75 0
1.375 0.75 0
1.25 0.875 0
1.375 0.875 0
1.375 0.75 0
1.5 0.75 0
1.375 0.875 0
1.5 0.875 0
1.375 0.875 0
1.5 0.875 0
1.375 1 0
1.5 1 0
1.25 0.875 0
1.375 0.875 0
1.25 1 0
1.375 1 0
1 0.75 0
1.125 0.75 0
1 0.875 0
1.125 0.875 0
1.125 0.75 0
1.25 0.75 0
1.125 0.875 0
1.25 0.875 0
1.125 0.875 0
1.25 0.875 0
1.125 1 0
1.25 1 0
1 0.875 0
1.125 0.875 0
1 1 0
1.125 1 0
2 0 0
2.125 0 0
2 0.125 0
2.125 0.125 0
2.125 0 0
2.25 0 0
2.125 0.125 0
2.25 0.125 0
2.125 0.125 0
2.25 0.125 0
2.125 0.25 0
2.25 0.25 0
2 0.125 0
2.125 0.125 0
2 0.25 0
2.125 0.25 0
2.25 0 0
2.375 0 0
2.25 0.125 0
2.375 0.125 0
2.375 0 0
2.5 0 0
2.375 0.125 0
2.5 0.125 0
2.375 0.125 0
2.5 0.125 0
2.375 0.25 0
2.5 0.25 0
2.25 0.125 0
2.375 0.125 0
2.25 0.25 0
2.375 0.25 0
2.25 0.25 0
2.375 0.25 0
2.25 0.375 0
2.375 0.375 0
2.375 0.25 0
2.5 0.25 0
2.375 0.375 0
2.5 0.375 0
2.375 0.375 0
2.5 0.375 0
2.375 0.5 0
2.5 0.5 0
2.25 0.375 0
2.375 0.375 0
2.25 0.5 0
2.375 0.5 0
2 0.25 0
2.125 0.25 0
2 0.375 0
2.125 0.375 0
2.125 0.25 0
2.25 0.25 0
2.125 0.375 0
2.25 0.375 0
2.125 0.375 0
2.25 0.375 0
2.125 0.5 0
2.25 0.5 0
2 0.375 0
2.125 0.375 0
2 0.5 0
2.125 0.5 0
2.5 0 0
2.625 0 0
2.5 0.125 0
2.625 0.125 0
2.625 0 0
2.75 0 0
2.625 0.125 0
2.75 0.125 0
2.625 0.125 0
2.75 0.125 0
2.625 0.25 0
2.75 0.25 0
2.5 0.125 0
2.625 0.125 0
2.5 0.25 0
2.625 0.25 0
2.75 0 0
2.875 0 0
2.75 0.125 0
2.875 0.125 0
2.875 0 0
3 0 0
2.875 0.125 0
3 0.125 0
2.875 0.125 0
3 0.125 0
2.875 0.25 0
3 0.25 0
2.75 0.125 0
2.875 0.125 0
2.75 0.25 0
2.875 0.25 0
2.75 0.25 0
2.875 0.25 0
2.75 0.375 0
2.875 0.375 0
2.875 0.25 0
3 0.25 0
2.875 0.375 0
3 0.375 0
2.875 0.375 0
3 0.375 0
2.875 0.5 0
3 0.5 0
2.75 0.375 0
2.875 0.375 0
2.75 0.5 0
2.875 0.5 0
2.5 0.25 0
2.625 0.25 0
2.5 0.375 0
2.625 0.375 0
2.625 0.25 0
2.75 0.25 0
2.625 0.375 0
2.75 0.375 0
2.625 0.375 0
2.75 0.375 0
2.625 0.5 0
2.75 0.5 0
2.5 0.375 0
2.625 0.375 0
2.5 0.5 0
2.625 0.5 0
2.5 0.5 0
2.625 0.5 0
2.5 0.625 0
2.625 0.625 0
2.625 0.5 0
2.75 0.5 0
2.625 0.625 0
2.75 0.625 0
2.625 0.625 0
2.75 0.625 0
2.625 0.75 0
2.75 0.75 0
2.5 0.625 0
2.625 0.625 0
2.5 0.75 0
2.625 0.75 0
2.75 0.5 0
2.875 0.5 0
2.75 0.625 0
2.875 0.625 0
2.875 0.5 0
3 0.5 0
2.875 0.625 0
3 0.625 0
2.875 0.625 0
3 0.625 0
2.875 0.75 0
3 0.75 0
2.75 0.625 0
2.875 0.625 0
2.75 0.75 0
2.875 0.75 0
2.75 0.75 0
2.875 0.75 0
2.75 0.875 0
2.875 0.875 0
2.875 0.75 0
3 0.75 0
2.875 0.875 0
3 0.875 0
2.875 0.875 0
3 0.875 0
2.875 1 0
3 1 0
2.75 0.875 0
2.875 0.875 0
2.75 1 0
2.875 1 0
2.5 0.75 0
2.625 0.75 0
2.5 0.875 0
2.625 0.875 0
2.625 0.75 0
2.75 0.75 0
2.625 0.875 0
2.75 0.875 0
2.625 0.875 0
2.75 0.875 0
2.625 1 0
2.75 1 0
2.5 0.875 0
2.625 0.875 0
2.5 1 0
2.625 1 0
2 0.5 0
2.125 0.5 0
2 0.625 0
2.125 0.625 0
2.125 0.5 0
2.25 0.5 0
2.125 0.625 0
2.25 0.625 0
2.125 0.625 0
2.25 0.625 0
2.125 0.75 0
2.25 0.75 0
2 0.625 0
2.125 0.625 0
2 0.75 0
2.125 0.75 0
2.25 0.5 0
2.375 0.5 0
2.25 0.625 0
2.375 0.625 0
2.375 0.5 0
2.5 0.5 0
2.375 0.625 0
2.5 0.625 0
2.375 0.625 0
2.5 0.625 0
2.375 0.75 0
2.5 0.75 0
2.25 0.625 0
2.375 0.625 0
2.25 0.75 0
2.375 0.75 0
2.25 0.75 0
2.375 0.75 0
2.25 0.875 0
2.375 0.875 0
2.375 0.75 0
2.5 0.75 0
2.375 0.875 0
2.5 0.875 0
2.375 0.875 0
2.5 0.875 0
2.375 1 0
2.5 1 0
2.25 0.875 0
2.375 0.875 0
2.25 1 0
2.375 1 0
2 0.75 0
2.125 0.75 0
2 0.875 0
2.125 0.875 0
2.125 0.75 0
2.25 0.75 0
2.125 0.875 0
2.25 0.875 0
2.125 0.875 0
2.25 0.875 0
2.125 1 0
2.25 1 0
2 0.875 0
2.125 0.875 0
2 1 0
2.125 1 0
3 0 0
3.125 0 0
3 0.125 0
3.125 0.125 0
3.125 0 0
3.25 0 0
3.125 0.125 0
3.25 0.125 0
3.125 0.125 0
3.25 0.125 0
3.125 0.25 0
3.25 0.25 0
3 0.125 0
3.125 0.125 0
3 0.25 0
3.125 0.25 0
3.25 0 0
3.375 0 0
3.25 0.125 0
3.375 0.125 0
3.375 0 0
3.5 0 0
3.375 0.125 0
3.5 0.125 0
3.375 0.125 0
3.5 0.125 0
3.375 0.25 0
3.5 0.25 0
3.25 0.125 0
3.375 0.125 0
3.25 0.25 0
3.375 0.25 0
3.25 0.25 0
3.375 0.25 0
3.25 0.375 0
3.375 0.375 0
3.375 0.25 0
3.5 0.25 0
3.375 0.375 0
3.5 0.375 0
3.375 0.375 0
3.5 0.375 0
3.375 0.5 0
3.5 0.5 0
3.25 0.375 0
3.375 0.375 0
3.25 0.5 0
[...]
<CellData Scalars="attribute">
<DataArray type="Int32" Name="attribute" format="ascii">
1
1
1
1
1
1
1
1
1
1
1
1
1
1
1
1
1
1
1
1
1
1
1
1
1
1
1
1
1
1
1
1
1
1
1
1
1
1
1
1
1
1
1
1
1
1
1
1
1
1
1
1
1
1
1
1
1
1
1
1
1
1
1
1
1
1
1
1
1
1
1
1
1
1
1
1
1
1
1
1
1
1
1
1
1
1
1
1
1
1
1
1
1
1
1
1
1
1
1
1
1
1
1
1
1
1
1
1
1
1
1
1
1
1
1
1
1
1
1
1
1
1
1
1
1
1
1
1
1
1
1
1
1
1
1
1
1
1
1
1
1
1
1
1
1
1
1
1
1
1
1
1
1
1
1
1
1
1
1
1
1
1
1
1
1
1
1
1
1
1
1
1
1
1
1
1
1
1
1
1
1
1
1
1
1
1
1
1
1
1
1
1
1
1
1
1
1
1
1
1
1
1
1
1
1
1
1
1
1
1
1
1
1
1
1
1
1
1
1
1
1
1
1
1
1
1
1
1
1
1
1
1
1
1
1
1
1
1
1
1
1
1
1
1
1
1
1
1
1
1
1
1
1
1
1
1
2
2
2
2
2
2
2
2
2
2
2
2
2
2
2
2
2
2
2
2
2
2
2
2
2
2
2
2
2
2
2
2
2
2
2
2
2
2
2
2
2
2
2
2
2
2
2
2
2
2
2
2
2
2
2
2
2
2
2
2
2
2
2
2
2
2
2
2
2
2
2
2
2
2
2
2
2
2
2
2
2
2
2
2
2
2
2
2
2
2
2
2
2
2
2
2
2
2
2
2
2
2
2
2
2
2
2
2
2
2
2
2
2
2
2
2
2
2
2
2
2
2
2
2
2
2
2
2
2
2
2
2
2
2
2
2
2
2
2
2
2
2
2
2
2
2
2
2
2
2
2
2
2
2
2
2
2
2
2
2
2
2
2
2
2
2
2
2
2
2
2
2
2
2
2
2
2
2
2
2
2
2
2
2
2
2
2
2
2
2
2
2
2
2
2
2
2
2
2
2
2
2
2
2
2
2
2
2
2
2
2
2
2
2
2
2
2
2
2
2
2
2
2
2
2
2
2
2
2
2
2
2
2
2
2
2
2
2
2
2
2
2
2
2
2
2
2
2
2
2
2
2
2
2
2
2
</DataArray>
</CellData>
<PointData >
<DataArray type="Float64" Name="Pressure" NumberOfComponents="1" format="ascii" >
-0.000462094
-6.82651e-07
-0.000756175
-1.13005e-06
-6.82651e-07
4.0641e-11
-1.13005e-06
7.03809e-11
-1.13005e-06
7.03809e-11
-7.58653e-07
4.77945e-11
-0.000756175
-1.13005e-06
-0.000504124
-7.58653e-07
4.0641e-11
-1.53528e-15
7.03809e-11
-2.74124e-15
-1.53528e-15
5.88975e-20
-2.74124e-15
1.0903e-19
-2.74124e-15
1.0903e-19
-1.90874e-15
7.79759e-20
7.03809e-11
-2.74124e-15
4.77945e-11
-1.90874e-15
4.77945e-11
-1.90874e-15
2.44931e-11
-9.75348e-16
-1.90874e-15
7.79759e-20
-9.75348e-16
3.98869e-20
-9.75348e-16
3.98869e-20
-3.2292e-17
1.26546e-21
2.44931e-11
-9.75348e-16
8.63742e-13
-3.2292e-17
-0.000504124
-7.58653e-07
-0.000252069
-3.8524e-07
-7.58653e-07
4.77945e-11
-3.8524e-07
2.44931e-11
-3.8524e-07
2.44931e-11
-8.53265e-09
8.63742e-13
-0.000252069
-3.8524e-07
-1.04988e-08
-8.53265e-09
5.88975e-20
-1.17262e-24
1.0903e-19
-2.24984e-24
-1.17262e-24
4.05591e-29
-2.24984e-24
7.82459e-29
-2.24984e-24
7.82459e-29
-1.6668e-24
5.87966e-29
1.0903e-19
-2.24984e-24
7.79759e-20
-1.6668e-24
4.05591e-29
-3.41926e-34
7.82459e-29
-7.27493e-34
-3.41926e-34
1.82013e-38
-7.27493e-34
3.56377e-38
-7.27493e-34
3.56377e-38
-5.88313e-34
2.75974e-38
7.82459e-29
-7.27493e-34
5.87966e-29
-5.88313e-34
5.87966e-29
-5.88313e-34
3.05678e-29
-3.10212e-34
-5.88313e-34
2.75974e-38
-3.10212e-34
1.46559e-38
-3.10212e-34
1.46559e-38
-8.9449e-36
3.73162e-40
3.05678e-29
-3.10212e-34
8.76797e-31
-8.9449e-36
7.79759e-20
-1.6668e-24
3.98869e-20
-8.57863e-25
-1.6668e-24
5.87966e-29
-8.57863e-25
3.05678e-29
-8.57863e-25
3.05678e-29
-2.62038e-26
8.76797e-31
3.98869e-20
-8.57863e-25
1.26546e-21
-2.62038e-26
1.26546e-21
-2.62038e-26
-3.78947e-20
8.17021e-25
-2.62038e-26
8.76797e-31
8.17021e-25
-2.92301e-29
8.17021e-25
-2.92301e-29
1.66083e-24
-5.86411e-29
-3.78947e-20
8.17021e-25
-7.76093e-20
1.66083e-24
8.76797e-31
-8.9449e-36
-2.92301e-29
2.9666e-34
-8.9449e-36
3.73162e-40
2.9666e-34
-1.41027e-38
2.9666e-34
-1.41027e-38
5.86724e-34
-2.75527e-38
-2.92301e-29
2.9666e-34
-5.86411e-29
5.86724e-34
-5.86411e-29
5.86724e-34
-7.94946e-29
7.38576e-34
5.86724e-34
-2.75527e-38
7.38576e-34
-3.61363e-38
7.38576e-34
-3.61363e-38
3.49391e-34
-1.85537e-38
-7.94946e-29
7.38576e-34
-4.1472e-29
3.49391e-34
-7.76093e-20
1.66083e-24
-1.10974e-19
2.28814e-24
1.66083e-24
-5.86411e-29
2.28814e-24
-7.94946e-29
2.28814e-24
-7.94946e-29
1.20108e-24
-4.1472e-29
-1.10974e-19
2.28814e-24
-6.04464e-20
1.20108e-24
-1.04988e-08
-8.53265e-09
0.000252052
3.71469e-07
-8.53265e-09
8.63742e-13
3.71469e-07
-2.31021e-11
3.71469e-07
-2.31021e-11
7.54766e-07
-4.74123e-11
0.000252052
3.71469e-07
0.000504119
7.54766e-07
8.63742e-13
-3.2292e-17
-2.31021e-11
9.23868e-16
-3.2292e-17
1.26546e-21
9.23868e-16
-3.78947e-20
9.23868e-16
-3.78947e-20
1.89677e-15
-7.76093e-20
-2.31021e-11
9.23868e-16
-4.74123e-11
1.89677e-15
-4.74123e-11
1.89677e-15
-7.16837e-11
2.79226e-15
1.89677e-15
-7.76093e-20
2.79226e-15
-1.10974e-19
2.79226e-15
-1.10974e-19
1.57871e-15
-6.04464e-20
-7.16837e-11
2.79226e-15
-4.19751e-11
1.57871e-15
0.000504119
7.54766e-07
0.000756191
1.14276e-06
7.54766e-07
-4.74123e-11
1.14276e-06
-7.16837e-11
1.14276e-06
-7.16837e-11
6.96124e-07
-4.19751e-11
0.000756191
1.14276e-06
0.00046211
6.96124e-07
1.82013e-38
2.63808e-44
3.56377e-38
1.00375e-44
2.63808e-44
6.41742e-48
1.00375e-44
1.24529e-47
1.00375e-44
1.24529e-47
-1.64749e-44
9.71853e-48
3.56377e-38
1.00375e-44
2.75974e-38
-1.64749e-44
6.41742e-48
5.68431e-53
1.24529e-47
9.6214e-53
5.68431e-53
1.89843e-57
9.6214e-53
3.61758e-57
9.6214e-53
3.61758e-57
6.64182e-53
2.80792e-57
1.24529e-47
9.6214e-53
9.71853e-48
6.64182e-53
9.71853e-48
6.64182e-53
5.23777e-48
3.46213e-53
6.64182e-53
2.80792e-57
3.46213e-53
1.52248e-57
3.46213e-53
1.52248e-57
5.8224e-55
2.89588e-59
5.23777e-48
3.46213e-53
1.16038e-49
5.8224e-55
2.75974e-38
-1.64749e-44
1.46559e-38
-1.12534e-44
-1.64749e-44
9.71853e-48
-1.12534e-44
5.23777e-48
-1.12534e-44
5.23777e-48
-6.43013e-46
1.16038e-49
1.46559e-38
-1.12534e-44
3.73162e-40
-6.43013e-46
1.89843e-57
2.359e-62
3.61758e-57
4.22884e-62
2.359e-62
4.62927e-67
4.22884e-62
8.69464e-67
4.22884e-62
8.69464e-67
3.10703e-62
6.70231e-67
3.61758e-57
4.22884e-62
2.80792e-57
3.10703e-62
4.62927e-67
6.04515e-72
8.69464e-67
1.1038e-71
6.04515e-72
9.06103e-77
1.1038e-71
1.68786e-76
1.1038e-71
1.68786e-76
8.29184e-72
1.29613e-76
8.69464e-67
1.1038e-71
6.70231e-67
8.29184e-72
6.70231e-67
8.29184e-72
3.63905e-67
4.45799e-72
8.29184e-72
1.29613e-76
4.45799e-72
7.03891e-77
4.45799e-72
7.03891e-77
6.41173e-74
9.85989e-79
3.63905e-67
4.45799e-72
5.92799e-69
6.41173e-74
2.80792e-57
3.10703e-62
1.52248e-57
1.6544e-62
3.10703e-62
6.70231e-67
1.6544e-62
3.63905e-67
1.6544e-62
3.63905e-67
2.65854e-64
5.92799e-69
1.52248e-57
1.6544e-62
2.89588e-59
2.65854e-64
2.89588e-59
2.65854e-64
-1.4808e-57
-1.61678e-62
2.65854e-64
5.92799e-69
-1.61678e-62
-3.55432e-67
-1.61678e-62
-3.55432e-67
-3.10804e-62
-6.69998e-67
-1.4808e-57
-1.61678e-62
-2.80615e-57
-3.10804e-62
5.92799e-69
6.41173e-74
-3.55432e-67
-4.36731e-72
6.41173e-74
9.85989e-79
-4.36731e-72
-6.89862e-77
-4.36731e-72
-6.89862e-77
-8.29313e-72
-1.2959e-76
-3.55432e-67
-4.36731e-72
-6.69998e-67
-8.29313e-72
-6.69998e-67
-8.29313e-72
-8.77464e-67
-1.11336e-71
-8.29313e-72
-1.2959e-76
-1.11336e-71
-1.70141e-76
-1.11336e-71
-1.70141e-76
-6.11326e-72
-9.15717e-77
-8.77464e-67
-1.11336e-71
-4.68594e-67
-6.11326e-72
-2.80615e-57
-3.10804e-62
-3.65579e-57
-4.27078e-62
-3.10804e-62
-6.69998e-67
-4.27078e-62
-8.77464e-67
-4.27078e-62
-8.77464e-67
-2.38926e-62
-4.68594e-67
-3.65579e-57
-4.27078e-62
-1.9254e-57
-2.38926e-62
3.73162e-40
-6.43013e-46
-1.41027e-38
1.02468e-44
-6.43013e-46
1.16038e-49
1.02468e-44
-5.06887e-48
1.02468e-44
-5.06887e-48
1.61522e-44
-9.70845e-48
-1.41027e-38
1.02468e-44
-2.75527e-38
1.61522e-44
1.16038e-49
5.8224e-55
-5.06887e-48
-3.38014e-53
5.8224e-55
2.89588e-59
-3.38014e-53
-1.4808e-57
-3.38014e-53
-1.4808e-57
-6.64796e-53
-2.80615e-57
-5.06887e-48
-3.38014e-53
-9.70845e-48
-6.64796e-53
-9.70845e-48
-6.64796e-53
-1.26043e-47
-9.72997e-53
-6.64796e-53
-2.80615e-57
-9.72997e-53
-3.65579e-57
-9.72997e-53
-3.65579e-57
-5.76582e-53
-1.9254e-57
-1.26043e-47
-9.72997e-53
-6.5238e-48
-5.76582e-53
-2.75527e-38
1.61522e-44
-3.61363e-38
-1.00964e-44
1.61522e-44
-9.70845e-48
-1.00964e-44
-1.26043e-47
-1.00964e-44
-1.26043e-47
-2.66437e-44
-6.5238e-48
-3.61363e-38
-1.00964e-44
-1.85537e-38
-2.66437e-44
9.06103e-77
1.12142e-81
1.68786e-76
2.06272e-81
1.12142e-81
1.41366e-86
2.06272e-81
2.62256e-86
2.06272e-81
2.62256e-86
1.56597e-81
2.01151e-86
1.68786e-76
2.06272e-81
1.29613e-76
1.56597e-81
1.41366e-86
1.60173e-91
2.62256e-86
2.95505e-91
1.60173e-91
1.77017e-96
2.95505e-91
3.27748e-96
2.95505e-91
3.27748e-96
2.25588e-91
2.51419e-96
2.62256e-86
2.95505e-91
2.01151e-86
2.25588e-91
2.01151e-86
2.25588e-91
1.09263e-86
1.22273e-91
2.25588e-91
2.51419e-96
1.22273e-91
1.36612e-96
1.22273e-91
1.36612e-96
1.35974e-93
1.4353e-98
1.09263e-86
1.22273e-91
1.32287e-88
1.35974e-93
1.29613e-76
1.56597e-81
7.03891e-77
8.46335e-82
1.56597e-81
2.01151e-86
8.46335e-82
1.09263e-86
8.46335e-82
1.09263e-86
1.07333e-83
1.32287e-88
7.03891e-77
8.46335e-82
9.85989e-79
1.07333e-83
1.77017e-96
1.82087e-101
3.27748e-96
3.36315e-101
1.82087e-101
1.80083e-106
3.36315e-101
3.33086e-106
3.36315e-101
3.33086e-106
2.57542e-101
2.55673e-106
3.27748e-96
3.36315e-101
2.51419e-96
2.57542e-101
1.80083e-106
1.68351e-111
3.33086e-106
3.11042e-111
1.68351e-111
1.50769e-116
3.11042e-111
2.78698e-116
3.11042e-111
2.78698e-116
2.38631e-111
2.14076e-116
3.33086e-106
3.11042e-111
2.55673e-106
2.38631e-111
2.55673e-106
2.38631e-111
1.38965e-106
1.29657e-111
2.38631e-111
2.14076e-116
1.29657e-111
1.1638e-116
1.29657e-111
1.1638e-116
1.10245e-113
9.27442e-119
1.38965e-106
1.29657e-111
1.27043e-108
1.10245e-113
2.51419e-96
2.57542e-101
1.36612e-96
1.39814e-101
2.57542e-101
2.55673e-106
1.39814e-101
1.38965e-106
1.39814e-101
1.38965e-106
1.36017e-103
1.27043e-108
1.36612e-96
1.39814e-101
1.4353e-98
1.36017e-103
1.4353e-98
1.36017e-103
-1.34578e-96
-1.37891e-101
1.36017e-103
1.27043e-108
-1.37891e-101
-1.37166e-106
-1.37891e-101
-1.37166e-106
-2.57546e-101
-2.55667e-106
-1.34578e-96
-1.37891e-101
-2.51408e-96
-2.57546e-101
1.27043e-108
1.10245e-113
-1.37166e-106
-1.28098e-111
1.10245e-113
9.27442e-119
-1.28098e-111
-1.15067e-116
-1.28098e-111
-1.15067e-116
-2.38631e-111
-2.14071e-116
-1.37166e-106
-1.28098e-111
-2.55667e-106
-2.38631e-111
-2.55667e-106
-2.38631e-111
-3.34866e-106
-3.12596e-111
-2.38631e-111
-2.14071e-116
-3.12596e-111
-2.79997e-116
-3.12596e-111
-2.79997e-116
-1.69451e-111
-1.51689e-116
-3.34866e-106
-3.12596e-111
-1.81344e-106
-1.69451e-111
-2.51408e-96
-2.57546e-101
-3.29755e-96
-3.38243e-101
-2.57546e-101
-2.55667e-106
-3.38243e-101
-3.34866e-106
-3.38243e-101
-3.34866e-106
-1.83452e-101
-1.81344e-106
-3.29755e-96
-3.38243e-101
-1.78439e-96
-1.83452e-101
9.85989e-79
1.07333e-83
-6.89862e-77
-8.31161e-82
1.07333e-83
1.32287e-88
-8.31161e-82
-1.07386e-86
-8.31161e-82
-1.07386e-86
-1.56609e-81
-2.01133e-86
-6.89862e-77
-8.31161e-82
-1.2959e-76
-1.56609e-81
1.32287e-88
1.35974e-93
-1.07386e-86
-1.20351e-91
1.35974e-93
1.4353e-98
-1.20351e-91
-1.34578e-96
-1.20351e-91
-1.34578e-96
-2.25596e-91
-2.51408e-96
-1.07386e-86
-1.20351e-91
-2.01133e-86
-2.25596e-91
-2.01133e-86
-2.25596e-91
-2.64095e-86
-2.97449e-91
-2.25596e-91
-2.51408e-96
-2.97449e-91
-3.29755e-96
-2.97449e-91
-3.29755e-96
-1.61549e-91
-1.78439e-96
-2.64095e-86
-2.97449e-91
-1.4267e-86
-1.61549e-91
-1.2959e-76
-1.56609e-81
-1.70141e-76
-2.07829e-81
-1.56609e-81
-2.01133e-86
-2.07829e-81
-2.64095e-86
-2.07829e-81
-2.64095e-86
-1.13246e-81
-1.4267e-86
-1.70141e-76
-2.07829e-81
-9.15717e-77
-1.13246e-81
1.50769e-116
1.28615e-121
2.78698e-116
2.37616e-121
1.28615e-121
1.05128e-126
2.37616e-121
1.94247e-126
2.37616e-121
1.94247e-126
1.82513e-121
1.49301e-126
2.78698e-116
2.37616e-121
2.14076e-116
1.82513e-121
1.05128e-126
8.22165e-132
1.94247e-126
1.51865e-131
8.22165e-132
6.16995e-137
1.51865e-131
1.13963e-136
1.51865e-131
1.13963e-136
1.1674e-131
8.76388e-137
1.94247e-126
1.51865e-131
1.49301e-126
1.1674e-131
1.49301e-126
1.1674e-131
8.11755e-127
6.3468e-132
1.1674e-131
8.76388e-137
6.3468e-132
4.76512e-137
6.3468e-132
4.76512e-137
4.12103e-134
2.89459e-139
8.11755e-127
6.3468e-132
5.64551e-129
4.12103e-134
2.14076e-116
1.82513e-121
1.1638e-116
9.92086e-122
1.82513e-121
1.49301e-126
9.92086e-122
8.11755e-127
9.92086e-122
8.11755e-127
7.37112e-124
5.64551e-129
1.1638e-116
9.92086e-122
9.27442e-119
7.37112e-124
6.16995e-137
4.44337e-142
1.13963e-136
8.20545e-142
4.44337e-142
3.07601e-147
8.20545e-142
5.67984e-147
8.20545e-142
5.67984e-147
6.31105e-142
4.36965e-147
1.13963e-136
8.20545e-142
8.76388e-137
6.31105e-142
3.07601e-147
2.0481e-152
5.67984e-147
3.78118e-152
2.0481e-152
1.3131e-157
3.78118e-152
2.42396e-157
3.78118e-152
2.42396e-157
2.90938e-152
1.86542e-157
5.67984e-147
3.78118e-152
4.36965e-147
2.90938e-152
4.36965e-147
2.90938e-152
2.37582e-147
1.58179e-152
2.90938e-152
1.86542e-157
1.58179e-152
1.01418e-157
1.58179e-152
1.01418e-157
7.85099e-155
4.70865e-160
2.37582e-147
1.58179e-152
1.26137e-149
7.85099e-155
8.76388e-137
6.31105e-142
4.76512e-137
3.43132e-142
6.31105e-142
4.36965e-147
3.43132e-142
2.37582e-147
3.43132e-142
2.37582e-147
1.94759e-144
1.26137e-149
4.76512e-137
3.43132e-142
2.89459e-139
1.94759e-144
2.89459e-139
1.94759e-144
-4.72413e-137
-3.40374e-142
1.94759e-144
1.26137e-149
-3.40374e-142
-2.35795e-147
-3.40374e-142
-2.35795e-147
-6.31089e-142
-4.36952e-147
-4.72413e-137
-3.40374e-142
-8.76366e-137
-6.31089e-142
1.26137e-149
7.85099e-155
-2.35795e-147
-1.57066e-152
7.85099e-155
4.70865e-160
-1.57066e-152
-1.0075e-157
-1.57066e-152
-1.0075e-157
-2.90929e-152
-1.86535e-157
-2.35795e-147
-1.57066e-152
-4.36952e-147
-2.90929e-152
-4.36952e-147
-2.90929e-152
-5.69739e-147
-3.79209e-152
-2.90929e-152
-1.86535e-157
-3.79209e-152
-2.43049e-157
-3.79209e-152
-2.43049e-157
-2.05582e-152
-1.31773e-157
-5.69739e-147
-3.79209e-152
-3.08844e-147
-2.05582e-152
-8.76366e-137
-6.31089e-142
-1.14367e-136
-8.23261e-142
-6.31089e-142
-4.36952e-147
-8.23261e-142
-5.69739e-147
-8.23261e-142
-5.69739e-147
-4.4626e-142
-3.08844e-147
-1.14367e-136
-8.23261e-142
-6.19856e-137
-4.4626e-142
9.27442e-119
7.37112e-124
-1.15067e-116
-9.81657e-122
7.37112e-124
5.64551e-129
-9.81657e-122
-8.03763e-127
-9.81657e-122
-8.03763e-127
-1.82511e-121
-1.49298e-126
-1.15067e-116
-9.81657e-122
-2.14071e-116
-1.82511e-121
5.64551e-129
4.12103e-134
-8.03763e-127
-6.28847e-132
4.12103e-134
2.89459e-139
-6.28847e-132
-4.72413e-137
-6.28847e-132
-4.72413e-137
-1.16737e-131
-8.76366e-137
-8.03763e-127
-6.28847e-132
-1.49298e-126
-1.16737e-131
-1.49298e-126
-1.16737e-131
-1.95037e-126
-1.52442e-131
-1.16737e-131
-8.76366e-137
-1.52442e-131
-1.14367e-136
-1.52442e-131
-1.14367e-136
-8.26248e-132
-6.19856e-137
-1.95037e-126
-1.52442e-131
-1.05688e-126
-8.26248e-132
-2.14071e-116
-1.82511e-121
-2.79997e-116
-2.38651e-121
-1.82511e-121
-1.49298e-126
-2.38651e-121
-1.95037e-126
-2.38651e-121
-1.95037e-126
-1.29348e-121
-1.05688e-126
-2.79997e-116
-2.38651e-121
-1.51689e-116
-1.29348e-121
1.3131e-157
8.112e-163
2.42396e-157
1.49725e-162
8.112e-163
4.83301e-168
1.49725e-162
8.91938e-168
1.49725e-162
8.91938e-168
1.15239e-162
6.86583e-168
2.42396e-157
1.49725e-162
1.86542e-157
1.15239e-162
4.83301e-168
2.77879e-173
8.91938e-168
5.12768e-173
2.77879e-173
1.54296e-178
5.12768e-173
2.84689e-178
5.12768e-173
2.84689e-178
3.94751e-173
2.19187e-178
8.91938e-168
5.12768e-173
6.86583e-168
3.94751e-173
6.86583e-168
3.94751e-173
3.73246e-168
2.14587e-173
3.94751e-173
2.19187e-178
2.14587e-173
1.19145e-178
2.14587e-173
1.19145e-178
8.15459e-176
4.23665e-181
3.73246e-168
2.14587e-173
1.51618e-170
8.15459e-176
1.86542e-157
1.15239e-162
1.01418e-157
6.26493e-163
1.15239e-162
6.86583e-168
6.26493e-163
3.73246e-168
6.26493e-163
3.73246e-168
2.72025e-165
1.51618e-170
1.01418e-157
6.26493e-163
4.70865e-160
2.72025e-165
1.54296e-178
8.27894e-184
2.84689e-178
1.52737e-183
8.27894e-184
4.29516e-189
1.52737e-183
7.92331e-189
1.52737e-183
7.92331e-189
1.17605e-183
6.10126e-189
2.84689e-178
1.52737e-183
2.19187e-178
1.17605e-183
4.29516e-189
2.15577e-194
7.92331e-189
3.97639e-194
2.15577e-194
1.04729e-199
3.97639e-194
1.93159e-199
3.97639e-194
1.93159e-199
3.06217e-194
1.48759e-199
7.92331e-189
3.97639e-194
6.10126e-189
3.06217e-194
6.10126e-189
3.06217e-194
3.31615e-189
1.66427e-194
3.06217e-194
1.48759e-199
1.66427e-194
8.08455e-200
1.66427e-194
8.08455e-200
4.85156e-197
2.20639e-202
3.31615e-189
1.66427e-194
1.03276e-191
4.85156e-197
2.19187e-178
1.17605e-183
1.19145e-178
6.39236e-184
1.17605e-183
6.10126e-189
6.39236e-184
3.31615e-189
6.39236e-184
3.31615e-189
2.12705e-186
1.03276e-191
1.19145e-178
6.39236e-184
4.23665e-181
2.12705e-186
4.23665e-181
2.12705e-186
-1.18543e-178
-6.36215e-184
2.12705e-186
1.03276e-191
-6.36215e-184
-3.30148e-189
-6.36215e-184
-3.30148e-189
-1.176e-183
-6.101e-189
-1.18543e-178
-6.36215e-184
-2.19179e-178
-1.176e-183
1.03276e-191
4.85156e-197
-3.30148e-189
-1.65737e-194
4.85156e-197
2.20639e-202
-1.65737e-194
-8.05315e-200
-1.65737e-194
-8.05315e-200
-3.06204e-194
-1.48752e-199
-3.30148e-189
-1.65737e-194
-6.101e-189
-3.06204e-194
-6.101e-189
-3.06204e-194
-7.93744e-189
-3.983e-194
-3.06204e-194
-1.48752e-199
-3.983e-194
-1.93459e-199
-3.983e-194
-1.93459e-199
-2.16046e-194
-1.04942e-199
-7.93744e-189
-3.983e-194
-4.30516e-189
-2.16046e-194
-2.19179e-178
-1.176e-183
-2.85272e-178
-1.53029e-183
-1.176e-183
-6.101e-189
-1.53029e-183
-7.93744e-189
-1.53029e-183
-7.93744e-189
-8.29959e-184
-4.30516e-189
-2.85272e-178
-1.53029e-183
-1.54708e-178
-8.29959e-184
4.70865e-160
2.72025e-165
-1.0075e-157
-6.22636e-163
2.72025e-165
1.51618e-170
-6.22636e-163
-3.71095e-168
-6.22636e-163
-3.71095e-168
-1.15235e-162
-6.86558e-168
-1.0075e-157
-6.22636e-163
-1.86535e-157
-1.15235e-162
1.51618e-170
8.15459e-176
-3.71095e-168
-2.13429e-173
8.15459e-176
4.23665e-181
-2.13429e-173
-1.18543e-178
-2.13429e-173
-1.18543e-178
-3.94736e-173
-2.19179e-178
-3.71095e-168
-2.13429e-173
-6.86558e-168
-3.94736e-173
-6.86558e-168
-3.94736e-173
-8.94033e-168
-5.13892e-173
-3.94736e-173
-2.19179e-178
-5.13892e-173
-2.85272e-178
-5.13892e-173
-2.85272e-178
-2.78675e-173
-1.54708e-178
-8.94033e-168
-5.13892e-173
-4.84784e-168
-2.78675e-173
-1.86535e-157
-1.15235e-162
-2.43049e-157
-1.50102e-162
-1.15235e-162
-6.86558e-168
-1.50102e-162
-8.94033e-168
-1.50102e-162
-8.94033e-168
-8.13867e-163
-4.84784e-168
-2.43049e-157
-1.50102e-162
-1.31773e-157
-8.13867e-163
1.04729e-199
4.927e-205
1.93159e-199
9.08642e-205
4.927e-205
2.24563e-210
9.08642e-205
4.14107e-210
9.08642e-205
4.14107e-210
6.99816e-205
3.18952e-210
1.93159e-199
9.08642e-205
1.48759e-199
6.99816e-205
2.24563e-210
9.91996e-216
4.14107e-210
1.82916e-215
9.91996e-216
4.2488e-221
1.82916e-215
7.8339e-221
1.82916e-215
7.8339e-221
1.40891e-215
6.0343e-221
4.14107e-210
1.82916e-215
3.18952e-210
1.40891e-215
3.18952e-210
1.40891e-215
1.73323e-210
7.65591e-216
1.40891e-215
6.0343e-221
7.65591e-216
3.27884e-221
7.65591e-216
3.27884e-221
1.71599e-218
6.88475e-224
1.73323e-210
7.65591e-216
4.1477e-213
1.71599e-218
1.48759e-199
6.99816e-205
8.08455e-200
3.80308e-205
6.99816e-205
3.18952e-210
3.80308e-205
1.73323e-210
3.80308e-205
1.73323e-210
9.71821e-208
4.1477e-213
8.08455e-200
3.80308e-205
2.20639e-202
9.71821e-208
4.2488e-221
1.76505e-226
7.8339e-221
3.25417e-226
1.76505e-226
7.11413e-232
3.25417e-226
1.31153e-231
3.25417e-226
1.31153e-231
2.50671e-226
1.01032e-231
7.8339e-221
3.25417e-226
6.0343e-221
2.50671e-226
7.11413e-232
2.78284e-237
1.31153e-231
5.13002e-237
2.78284e-237
1.05675e-242
5.13002e-237
1.94796e-242
5.13002e-237
1.94796e-242
3.95196e-237
1.50067e-242
1.31153e-231
5.13002e-237
1.01032e-231
3.95196e-237
1.01032e-231
3.95196e-237
5.48929e-232
2.14711e-237
3.95196e-237
1.50067e-242
2.14711e-237
8.15292e-243
2.14711e-237
8.15292e-243
3.71083e-240
1.32109e-245
5.48929e-232
2.14711e-237
1.01211e-234
3.71083e-240
6.0343e-221
2.50671e-226
3.27884e-221
1.36201e-226
2.50671e-226
1.01032e-231
1.36201e-226
5.48929e-232
1.36201e-226
5.48929e-232
2.67964e-229
1.01211e-234
3.27884e-221
1.36201e-226
6.88475e-224
2.67964e-229
6.88475e-224
2.67964e-229
-3.26902e-221
-1.35818e-226
2.67964e-229
1.01211e-234
-1.35818e-226
-5.47483e-232
-1.35818e-226
-5.47483e-232
-2.50659e-226
-1.01026e-231
-3.26902e-221
-1.35818e-226
-6.034e-221
-2.50659e-226
1.01211e-234
3.71083e-240
-5.47483e-232
-2.14181e-237
3.71083e-240
1.32109e-245
-2.14181e-237
-8.134e-243
-2.14181e-237
-8.134e-243
-3.95175e-237
-1.50059e-242
-5.47483e-232
-2.14181e-237
-1.01026e-231
-3.95175e-237
-1.01026e-231
-3.95175e-237
-1.31287e-231
-5.13492e-237
-3.95175e-237
-1.50059e-242
-5.13492e-237
-1.94969e-242
-5.13492e-237
-1.94969e-242
-2.78631e-237
-1.05798e-242
-1.31287e-231
-5.13492e-237
-7.12364e-232
-2.78631e-237
-6.034e-221