<VTKFile type="UnstructuredGrid" version="0.1" byte_order="LittleEndian">
<UnstructuredGrid>
<Piece NumberOfPoints="2048" NumberOfCells="512">
<Points>
<DataArray type="Float64" NumberOfComponents="3" format="ascii">
0 0 0
0.125 0 0
0 0.125 0
0.125 0.125 0
0.125 0 0
0.25 0 0
0.125 0.125 0
0.25 0.125 0
0.125 0.125 0
0.25 0.125 0
0.125 0.25 0
0.25 0.25 0
0 0.125 0
0.125 0.125 0
0 0.25 0
0.125 0.25 0
0.25 0 0
0.375 0 0
0.25 0.125 0
0.375 0.125 0
0.375 0 0
0.5 0 0
0.375 0.125 0
0.5 0.125 0
0.375 0.125 0
0.5 0.125 0
0.375 0.25 0
0.5 0.25 0
0.25 0.125 0
0.375 0.125 0
0.25 0.25 0
0.375 0.25 0
0.25 0.25 0
0.375 0.25 0
0.25 0.375 0
0.375 0.375 0
0.375 0.25 0
0.5 0.25 0
0.375 0.375 0
0.5 0.375 0
0.375 0.375 0
0.5 0.375 0
0.375 0.5 0
0.5 0.5 0
0.25 0.375 0
0.375 0.375 0
0.25 0.5 0
0.375 0.5 0
0 0.25 0
0.125 0.25 0
0 0.375 0
0.125 0.375 0
0.125 0.25 0
0.25 0.25 0
0.125 0.375 0
0.25 0.375 0
0.125 0.375 0
0.25 0.375 0
0.125 0.5 0
0.25 0.5 0
0 0.375 0
0.125 0.375 0
0 0.5 0
0.125 0.5 0
0.5 0 0
0.625 0 0
0.5 0.125 0
0.625 0.125 0
0.625 0 0
0.75 0 0
0.625 0.125 0
0.75 0.125 0
0.625 0.125 0
0.75 0.125 0
0.625 0.25 0
0.75 0.25 0
0.5 0.125 0
0.625 0.125 0
0.5 0.25 0
0.625 0.25 0
0.75 0 0
0.875 0 0
0.75 0.125 0
0.875 0.125 0
0.875 0 0
1 0 0
0.875 0.125 0
1 0.125 0
0.875 0.125 0
1 0.125 0
0.875 0.25 0
1 0.25 0
0.75 0.125 0
0.875 0.125 0
0.75 0.25 0
0.875 0.25 0
0.75 0.25 0
0.875 0.25 0
0.75 0.375 0
0.875 0.375 0
0.875 0.25 0
1 0.25 0
0.875 0.375 0
1 0.375 0
0.875 0.375 0
1 0.375 0
0.875 0.5 0
1 0.5 0
0.75 0.375 0
0.875 0.375 0
0.75 0.5 0
0.875 0.5 0
0.5 0.25 0
0.625 0.25 0
0.5 0.375 0
0.625 0.375 0
0.625 0.25 0
0.75 0.25 0
0.625 0.375 0
0.75 0.375 0
0.625 0.375 0
0.75 0.375 0
0.625 0.5 0
0.75 0.5 0
0.5 0.375 0
0.625 0.375 0
0.5 0.5 0
0.625 0.5 0
0.5 0.5 0
0.625 0.5 0
0.5 0.625 0
0.625 0.625 0
0.625 0.5 0
0.75 0.5 0
0.625 0.625 0
0.75 0.625 0
0.625 0.625 0
0.75 0.625 0
0.625 0.75 0
0.75 0.75 0
0.5 0.625 0
0.625 0.625 0
0.5 0.75 0
0.625 0.75 0
0.75 0.5 0
0.875 0.5 0
0.75 0.625 0
0.875 0.625 0
0.875 0.5 0
1 0.5 0
0.875 0.625 0
1 0.625 0
0.875 0.625 0
1 0.625 0
0.875 0.75 0
1 0.75 0
0.75 0.625 0
0.875 0.625 0
0.75 0.75 0
0.875 0.75 0
0.75 0.75 0
0.875 0.75 0
0.75 0.875 0
0.875 0.875 0
0.875 0.75 0
1 0.75 0
0.875 0.875 0
1 0.875 0
0.875 0.875 0
1 0.875 0
0.875 1 0
1 1 0
0.75 0.875 0
0.875 0.875 0
0.75 1 0
0.875 1 0
0.5 0.75 0
0.625 0.75 0
0.5 0.875 0
0.625 0.875 0
0.625 0.75 0
0.75 0.75 0
0.625 0.875 0
0.75 0.875 0
0.625 0.875 0
0.75 0.875 0
0.625 1 0
0.75 1 0
0.5 0.875 0
0.625 0.875 0
0.5 1 0
0.625 1 0
0 0.5 0
0.125 0.5 0
0 0.625 0
0.125 0.625 0
0.125 0.5 0
0.25 0.5 0
0.125 0.625 0
0.25 0.625 0
0.125 0.625 0
0.25 0.625 0
0.125 0.75 0
0.25 0.75 0
0 0.625 0
0.125 0.625 0
0 0.75 0
0.125 0.75 0
0.25 0.5 0
0.375 0.5 0
0.25 0.625 0
0.375 0.625 0
0.375 0.5 0
0.5 0.5 0
0.375 0.625 0
0.5 0.625 0
0.375 0.625 0
0.5 0.625 0
0.375 0.75 0
0.5 0.75 0
0.25 0.625 0
0.375 0.625 0
0.25 0.75 0
0.375 0.75 0
0.25 0.75 0
0.375 0.75 0
0.25 0.875 0
0.375 0.875 0
0.375 0.75 0
0.5 0.75 0
0.375 0.875 0
0.5 0.875 0
0.375 0.875 0
0.5 0.875 0
0.375 1 0
0.5 1 0
0.25 0.875 0
0.375 0.875 0
0.25 1 0
0.375 1 0
0 0.75 0
0.125 0.75 0
0 0.875 0
0.125 0.875 0
0.125 0.75 0
0.25 0.75 0
0.125 0.875 0
0.25 0.875 0
0.125 0.875 0
0.25 0.875 0
0.125 1 0
0.25 1 0
0 0.875 0
0.125 0.875 0
0 1 0
0.125 1 0
1 0 0
1.125 0 0
1 0.125 0
1.125 0.125 0
1.125 0 0
1.25 0 0
1.125 0.125 0
1.25 0.125 0
1.125 0.125 0
1.25 0.125 0
1.125 0.25 0
1.25 0.25 0
1 0.125 0
1.125 0.125 0
1 0.25 0
1.125 0.25 0
1.25 0 0
1.375 0 0
1.25 0.125 0
1.375 0.125 0
1.375 0 0
1.5 0 0
1.375 0.125 0
1.5 0.125 0
1.375 0.125 0
1.5 0.125 0
1.375 0.25 0
1.5 0.25 0
1.25 0.125 0
1.375 0.125 0
1.25 0.25 0
1.375 0.25 0
1.25 0.25 0
1.375 0.25 0
1.25 0.375 0
1.375 0.375 0
1.375 0.25 0
1.5 0.25 0
1.375 0.375 0
1.5 0.375 0
1.375 0.375 0
1.5 0.375 0
1.375 0.5 0
1.5 0.5 0
1.25 0.375 0
1.375 0.375 0
1.25 0.5 0
1.375 0.5 0
1 0.25 0
1.125 0.25 0
1 0.375 0
1.125 0.375 0
1.125 0.25 0
1.25 0.25 0
1.125 0.375 0
1.25 0.375 0
1.125 0.375 0
1.25 0.375 0
1.125 0.5 0
1.25 0.5 0
1 0.375 0
1.125 0.375 0
1 0.5 0
1.125 0.5 0
1.5 0 0
1.625 0 0
1.5 0.125 0
1.625 0.125 0
1.625 0 0
1.75 0 0
1.625 0.125 0
1.75 0.125 0
1.625 0.125 0
1.75 0.125 0
1.625 0.25 0
1.75 0.25 0
1.5 0.125 0
1.625 0.125 0
1.5 0.25 0
1.625 0.25 0
1.75 0 0
1.875 0 0
1.75 0.125 0
1.875 0.125 0
1.875 0 0
2 0 0
1.875 0.125 0
2 0.125 0
1.875 0.125 0
2 0.125 0
1.875 0.25 0
2 0.25 0
1.75 0.125 0
1.875 0.125 0
1.75 0.25 0
1.875 0.25 0
1.75 0.25 0
1.875 0.25 0
1.75 0.375 0
1.875 0.375 0
1.875 0.25 0
2 0.25 0
1.875 0.375 0
2 0.375 0
1.875 0.375 0
2 0.375 0
1.875 0.5 0
2 0.5 0
1.75 0.375 0
1.875 0.375 0
1.75 0.5 0
1.875 0.5 0
1.5 0.25 0
1.625 0.25 0
1.5 0.375 0
1.625 0.375 0
1.625 0.25 0
1.75 0.25 0
1.625 0.375 0
1.75 0.375 0
1.625 0.375 0
1.75 0.375 0
1.625 0.5 0
1.75 0.5 0
1.5 0.375 0
1.625 0.375 0
1.5 0.5 0
1.625 0.5 0
1.5 0.5 0
1.625 0.5 0
1.5 0.625 0
1.625 0.625 0
1.625 0.5 0
1.75 0.5 0
1.625 0.625 0
1.75 0.625 0
1.625 0.625 0
1.75 0.625 0
1.625 0.75 0
1.75 0.75 0
1.5 0.625 0
1.625 0.625 0
1.5 0.75 0
1.625 0.75 0
1.75 0.5 0
1.875 0.5 0
1.75 0.625 0
1.875 0.625 0
1.875 0.5 0
2 0.5 0
1.875 0.625 0
2 0.625 0
1.875 0.625 0
2 0.625 0
1.875 0.75 0
2 0.75 0
1.75 0.625 0
1.875 0.625 0
1.75 0.75 0
1.875 0.75 0
1.75 0.75 0
1.875 0.75 0
1.75 0.875 0
1.875 0.875 0
1.875 0.75 0
2 0.75 0
1.875 0.875 0
2 0.875 0
1.875 0.875 0
2 0.875 0
1.875 1 0
2 1 0
1.75 0.875 0
1.875 0.875 0
1.75 1 0
1.875 1 0
1.5 0.75 0
1.625 0.75 0
1.5 0.875 0
1.625 0.875 0
1.625 0.75 0
1.75 0.75 0
1.625 0.875 0
1.75 0.875 0
1.625 0.875 0
1.75 0.875 0
1.625 1 0
1.75 1 0
1.5 0.875 0
1.625 0.875 0
1.5 1 0
1.625 1 0
1 0.5 0
1.125 0.5 0
1 0.625 0
1.125 0.625 0
1.125 0.5 0
1.25 0.5 0
1.125 0.625 0
1.25 0.625 0
1.125 0.625 0
1.25 0.625 0
1.125 0.75 0
1.25 0.75 0
1 0.625 0
1.125 0.625 0
1 0.75 0
1.125 0.75 0
1.25 0.5 0
1.375 0.5 0
1.25 0.625 0
1.375 0.625 0
1.375 0.5 0
1.5 0.5 0
1.375 0.625 0
1.5 0.625 0
1.375 0.625 0
1.5 0.625 0
1.375 0.75 0
1.5 0.75 0
1.25 0.625 0
1.375 0.625 0
1.25 0.75 0
1.375 0.75 0
1.25 0.75 0
1.375 0.75 0
1.25 0.875 0
1.375 0.875 0
1.375 0.75 0
1.5 0.75 0
1.375 0.875 0
1.5 0.875 0
1.375 0.875 0
1.5 0.875 0
1.375 1 0
1.5 1 0
1.25 0.875 0
1.375 0.875 0
1.25 1 0
1.375 1 0
1 0.75 0
1.125 0.75 0
1 0.875 0
1.125 0.875 0
1.125 0.75 0
1.25 0.75 0
1.125 0.875 0
1.25 0.875 0
1.125 0.875 0
1.25 0.875 0
1.125 1 0
1.25 1 0
1 0.875 0
1.125 0.875 0
1 1 0
1.125 1 0
2 0 0
2.125 0 0
2 0.125 0
2.125 0.125 0
2.125 0 0
2.25 0 0
2.125 0.125 0
2.25 0.125 0
2.125 0.125 0
2.25 0.125 0
2.125 0.25 0
2.25 0.25 0
2 0.125 0
2.125 0.125 0
2 0.25 0
2.125 0.25 0
2.25 0 0
2.375 0 0
2.25 0.125 0
2.375 0.125 0
2.375 0 0
2.5 0 0
2.375 0.125 0
2.5 0.125 0
2.375 0.125 0
2.5 0.125 0
2.375 0.25 0
2.5 0.25 0
2.25 0.125 0
2.375 0.125 0
2.25 0.25 0
2.375 0.25 0
2.25 0.25 0
2.375 0.25 0
2.25 0.375 0
2.375 0.375 0
2.375 0.25 0
2.5 0.25 0
2.375 0.375 0
2.5 0.375 0
2.375 0.375 0
2.5 0.375 0
2.375 0.5 0
2.5 0.5 0
2.25 0.375 0
2.375 0.375 0
2.25 0.5 0
2.375 0.5 0
2 0.25 0
2.125 0.25 0
2 0.375 0
2.125 0.375 0
2.125 0.25 0
2.25 0.25 0
2.125 0.375 0
2.25 0.375 0
2.125 0.375 0
2.25 0.375 0
2.125 0.5 0
2.25 0.5 0
2 0.375 0
2.125 0.375 0
2 0.5 0
2.125 0.5 0
2.5 0 0
2.625 0 0
2.5 0.125 0
2.625 0.125 0
2.625 0 0
2.75 0 0
2.625 0.125 0
2.75 0.125 0
2.625 0.125 0
2.75 0.125 0
2.625 0.25 0
2.75 0.25 0
2.5 0.125 0
2.625 0.125 0
2.5 0.25 0
2.625 0.25 0
2.75 0 0
2.875 0 0
2.75 0.125 0
2.875 0.125 0
2.875 0 0
3 0 0
2.875 0.125 0
3 0.125 0
2.875 0.125 0
3 0.125 0
2.875 0.25 0
3 0.25 0
2.75 0.125 0
2.875 0.125 0
2.75 0.25 0
2.875 0.25 0
2.75 0.25 0
2.875 0.25 0
2.75 0.375 0
2.875 0.375 0
2.875 0.25 0
3 0.25 0
2.875 0.375 0
3 0.375 0
2.875 0.375 0
3 0.375 0
2.875 0.5 0
3 0.5 0
2.75 0.375 0
2.875 0.375 0
2.75 0.5 0
2.875 0.5 0
2.5 0.25 0
2.625 0.25 0
2.5 0.375 0
2.625 0.375 0
2.625 0.25 0
2.75 0.25 0
2.625 0.375 0
2.75 0.375 0
2.625 0.375 0
2.75 0.375 0
2.625 0.5 0
2.75 0.5 0
2.5 0.375 0
2.625 0.375 0
2.5 0.5 0
2.625 0.5 0
2.5 0.5 0
2.625 0.5 0
2.5 0.625 0
2.625 0.625 0
2.625 0.5 0
2.75 0.5 0
2.625 0.625 0
2.75 0.625 0
2.625 0.625 0
2.75 0.625 0
2.625 0.75 0
2.75 0.75 0
2.5 0.625 0
2.625 0.625 0
2.5 0.75 0
2.625 0.75 0
2.75 0.5 0
2.875 0.5 0
2.75 0.625 0
2.875 0.625 0
2.875 0.5 0
3 0.5 0
2.875 0.625 0
3 0.625 0
2.875 0.625 0
3 0.625 0
2.875 0.75 0
3 0.75 0
2.75 0.625 0
2.875 0.625 0
2.75 0.75 0
2.875 0.75 0
2.75 0.75 0
2.875 0.75 0
2.75 0.875 0
2.875 0.875 0
2.875 0.75 0
3 0.75 0
2.875 0.875 0
3 0.875 0
2.875 0.875 0
3 0.875 0
2.875 1 0
3 1 0
2.75 0.875 0
2.875 0.875 0
2.75 1 0
2.875 1 0
2.5 0.75 0
2.625 0.75 0
2.5 0.875 0
2.625 0.875 0
2.625 0.75 0
2.75 0.75 0
2.625 0.875 0
2.75 0.875 0
2.625 0.875 0
2.75 0.875 0
2.625 1 0
2.75 1 0
2.5 0.875 0
2.625 0.875 0
2.5 1 0
2.625 1 0
2 0.5 0
2.125 0.5 0
2 0.625 0
2.125 0.625 0
2.125 0.5 0
2.25 0.5 0
2.125 0.625 0
2.25 0.625 0
2.125 0.625 0
2.25 0.625 0
2.125 0.75 0
2.25 0.75 0
2 0.625 0
2.125 0.625 0
2 0.75 0
2.125 0.75 0
2.25 0.5 0
2.375 0.5 0
2.25 0.625 0
2.375 0.625 0
2.375 0.5 0
2.5 0.5 0
2.375 0.625 0
2.5 0.625 0
2.375 0.625 0
2.5 0.625 0
2.375 0.75 0
2.5 0.75 0
2.25 0.625 0
2.375 0.625 0
2.25 0.75 0
2.375 0.75 0
2.25 0.75 0
2.375 0.75 0
2.25 0.875 0
2.375 0.875 0
2.375 0.75 0
2.5 0.75 0
2.375 0.875 0
2.5 0.875 0
2.375 0.875 0
2.5 0.875 0
2.375 1 0
2.5 1 0
2.25 0.875 0
2.375 0.875 0
2.25 1 0
2.375 1 0
2 0.75 0
2.125 0.75 0
2 0.875 0
2.125 0.875 0
2.125 0.75 0
2.25 0.75 0
2.125 0.875 0
2.25 0.875 0
2.125 0.875 0
2.25 0.875 0
2.125 1 0
2.25 1 0
2 0.875 0
2.125 0.875 0
2 1 0
2.125 1 0
3 0 0
3.125 0 0
3 0.125 0
3.125 0.125 0
3.125 0 0
3.25 0 0
3.125 0.125 0
3.25 0.125 0
3.125 0.125 0
3.25 0.125 0
3.125 0.25 0
3.25 0.25 0
3 0.125 0
3.125 0.125 0
3 0.25 0
3.125 0.25 0
3.25 0 0
3.375 0 0
3.25 0.125 0
3.375 0.125 0
3.375 0 0
3.5 0 0
3.375 0.125 0
3.5 0.125 0
3.375 0.125 0
3.5 0.125 0
3.375 0.25 0
3.5 0.25 0
3.25 0.125 0
3.375 0.125 0
3.25 0.25 0
3.375 0.25 0
3.25 0.25 0
3.375 0.25 0
3.25 0.375 0
3.375 0.375 0
3.375 0.25 0
3.5 0.25 0
3.375 0.375 0
3.5 0.375 0
3.375 0.375 0
3.5 0.375 0
3.375 0.5 0
3.5 0.5 0
3.25 0.375 0
3.375 0.375 0
3.25 0.5 0
[...]
<CellData Scalars="attribute">
<DataArray type="Int32" Name="attribute" format="ascii">
1
1
1
1
1
1
1
1
1
1
1
1
1
1
1
1
1
1
1
1
1
1
1
1
1
1
1
1
1
1
1
1
1
1
1
1
1
1
1
1
1
1
1
1
1
1
1
1
1
1
1
1
1
1
1
1
1
1
1
1
1
1
1
1
1
1
1
1
1
1
1
1
1
1
1
1
1
1
1
1
1
1
1
1
1
1
1
1
1
1
1
1
1
1
1
1
1
1
1
1
1
1
1
1
1
1
1
1
1
1
1
1
1
1
1
1
1
1
1
1
1
1
1
1
1
1
1
1
1
1
1
1
1
1
1
1
1
1
1
1
1
1
1
1
1
1
1
1
1
1
1
1
1
1
1
1
1
1
1
1
1
1
1
1
1
1
1
1
1
1
1
1
1
1
1
1
1
1
1
1
1
1
1
1
1
1
1
1
1
1
1
1
1
1
1
1
1
1
1
1
1
1
1
1
1
1
1
1
1
1
1
1
1
1
1
1
1
1
1
1
1
1
1
1
1
1
1
1
1
1
1
1
1
1
1
1
1
1
1
1
1
1
1
1
1
1
1
1
1
1
1
1
1
1
1
1
2
2
2
2
2
2
2
2
2
2
2
2
2
2
2
2
2
2
2
2
2
2
2
2
2
2
2
2
2
2
2
2
2
2
2
2
2
2
2
2
2
2
2
2
2
2
2
2
2
2
2
2
2
2
2
2
2
2
2
2
2
2
2
2
2
2
2
2
2
2
2
2
2
2
2
2
2
2
2
2
2
2
2
2
2
2
2
2
2
2
2
2
2
2
2
2
2
2
2
2
2
2
2
2
2
2
2
2
2
2
2
2
2
2
2
2
2
2
2
2
2
2
2
2
2
2
2
2
2
2
2
2
2
2
2
2
2
2
2
2
2
2
2
2
2
2
2
2
2
2
2
2
2
2
2
2
2
2
2
2
2
2
2
2
2
2
2
2
2
2
2
2
2
2
2
2
2
2
2
2
2
2
2
2
2
2
2
2
2
2
2
2
2
2
2
2
2
2
2
2
2
2
2
2
2
2
2
2
2
2
2
2
2
2
2
2
2
2
2
2
2
2
2
2
2
2
2
2
2
2
2
2
2
2
2
2
2
2
2
2
2
2
2
2
2
2
2
2
2
2
2
2
2
2
2
2
</DataArray>
</CellData>
<PointData >
<DataArray type="Float64" Name="Pressure" NumberOfComponents="1" format="ascii" >
-0.0008756
-1.81477e-06
-0.00143286
-3.00417e-06
-1.81477e-06
1.47314e-10
-3.00417e-06
2.55121e-10
-3.00417e-06
2.55121e-10
-2.01685e-06
1.7325e-10
-0.00143286
-3.00417e-06
-0.000955256
-2.01685e-06
1.47314e-10
-7.5207e-15
2.55121e-10
-1.3429e-14
-7.5207e-15
3.88475e-19
-1.3429e-14
7.19202e-19
-1.3429e-14
7.19202e-19
-9.35102e-15
5.14382e-19
2.55121e-10
-1.3429e-14
1.7325e-10
-9.35102e-15
1.7325e-10
-9.35102e-15
8.8786e-11
-4.77832e-15
-9.35102e-15
5.14382e-19
-4.77832e-15
2.63123e-19
-4.77832e-15
2.63123e-19
-1.5826e-16
8.34994e-21
8.8786e-11
-4.77832e-15
3.13277e-12
-1.5826e-16
-0.000955256
-2.01685e-06
-0.000477647
-1.02415e-06
-2.01685e-06
1.7325e-10
-1.02415e-06
8.8786e-11
-1.02415e-06
8.8786e-11
-2.26857e-08
3.13277e-12
-0.000477647
-1.02415e-06
-2.79104e-08
-2.26857e-08
3.88475e-19
-1.03894e-23
7.19202e-19
-1.99363e-23
-1.03894e-23
4.82973e-28
-1.99363e-23
9.3182e-28
-1.99363e-23
9.3182e-28
-1.47713e-23
7.00239e-28
7.19202e-19
-1.99363e-23
5.14382e-19
-1.47713e-23
4.82973e-28
-5.45776e-33
9.3182e-28
-1.1617e-32
-5.45776e-33
3.91312e-37
-1.1617e-32
7.66202e-37
-1.1617e-32
7.66202e-37
-9.39697e-33
5.93354e-37
9.3182e-28
-1.1617e-32
7.00239e-28
-9.39697e-33
7.00239e-28
-9.39697e-33
3.64053e-28
-4.95519e-33
-9.39697e-33
5.93354e-37
-4.95519e-33
3.15112e-37
-4.95519e-33
3.15112e-37
-1.42937e-34
8.02354e-39
3.64053e-28
-4.95519e-33
1.04438e-29
-1.42937e-34
5.14382e-19
-1.47713e-23
2.63123e-19
-7.60255e-24
-1.47713e-23
7.00239e-28
-7.60255e-24
3.64053e-28
-7.60255e-24
3.64053e-28
-2.3229e-25
1.04438e-29
2.63123e-19
-7.60255e-24
8.34994e-21
-2.3229e-25
8.34994e-21
-2.3229e-25
-2.49978e-19
7.2405e-24
-2.3229e-25
1.04438e-29
7.2405e-24
-3.4812e-28
7.2405e-24
-3.4812e-28
1.47183e-23
-6.98387e-28
-2.49978e-19
7.2405e-24
-5.11963e-19
1.47183e-23
1.04438e-29
-1.42937e-34
-3.4812e-28
4.73863e-33
-1.42937e-34
8.02354e-39
4.73863e-33
-3.03216e-37
4.73863e-33
-3.03216e-37
9.37158e-33
-5.92393e-37
-3.4812e-28
4.73863e-33
-6.98387e-28
9.37158e-33
-6.98387e-28
9.37158e-33
-9.46692e-28
1.1794e-32
9.37158e-33
-5.92393e-37
1.1794e-32
-7.76923e-37
1.1794e-32
-7.76923e-37
5.57696e-33
-3.98887e-37
-9.46692e-28
1.1794e-32
-4.93846e-28
5.57696e-33
-5.11963e-19
1.47183e-23
-7.32027e-19
2.02758e-23
1.47183e-23
-6.98387e-28
2.02758e-23
-9.46692e-28
2.02758e-23
-9.46692e-28
1.06416e-23
-4.93846e-28
-7.32027e-19
2.02758e-23
-3.98693e-19
1.06416e-23
-2.79104e-08
-2.26857e-08
0.000477602
9.87536e-07
-2.26857e-08
3.13277e-12
9.87536e-07
-8.37412e-11
9.87536e-07
-8.37412e-11
2.00652e-06
-1.71864e-10
0.000477602
9.87536e-07
0.000955243
2.00652e-06
3.13277e-12
-1.5826e-16
-8.37412e-11
4.52603e-15
-1.5826e-16
8.34994e-21
4.52603e-15
-2.49978e-19
4.52603e-15
-2.49978e-19
9.29235e-15
-5.11963e-19
-8.37412e-11
4.52603e-15
-1.71864e-10
9.29235e-15
-1.71864e-10
9.29235e-15
-2.59846e-10
1.36791e-14
9.29235e-15
-5.11963e-19
1.36791e-14
-7.32027e-19
1.36791e-14
-7.32027e-19
7.73354e-15
-3.98693e-19
-2.59846e-10
1.36791e-14
-1.52153e-10
7.73354e-15
0.000955243
2.00652e-06
0.0014329
3.03799e-06
2.00652e-06
-1.71864e-10
3.03799e-06
-2.59846e-10
3.03799e-06
-2.59846e-10
1.85059e-06
-1.52153e-10
0.0014329
3.03799e-06
0.000875644
1.85059e-06
3.91312e-37
7.73721e-43
7.66202e-37
3.10423e-43
7.73721e-43
2.49792e-46
3.10423e-43
4.84708e-46
3.10423e-43
4.84708e-46
-4.61428e-43
3.78272e-46
7.66202e-37
3.10423e-43
5.93354e-37
-4.61428e-43
2.49792e-46
2.98651e-51
4.84708e-46
5.05623e-51
2.98651e-51
1.34317e-55
5.05623e-51
2.55941e-55
5.05623e-51
2.55941e-55
3.49123e-51
1.98652e-55
4.84708e-46
5.05623e-51
3.78272e-46
3.49123e-51
3.78272e-46
3.49123e-51
2.03869e-46
1.81997e-51
3.49123e-51
1.98652e-55
1.81997e-51
1.0771e-55
1.81997e-51
1.0771e-55
3.06202e-53
2.04861e-57
2.03869e-46
1.81997e-51
4.51639e-48
3.06202e-53
5.93354e-37
-4.61428e-43
3.15112e-37
-3.17544e-43
-4.61428e-43
3.78272e-46
-3.17544e-43
2.03869e-46
-3.17544e-43
2.03869e-46
-1.84225e-44
4.51639e-48
3.15112e-37
-3.17544e-43
8.02354e-39
-1.84225e-44
1.34317e-55
2.25548e-60
2.55941e-55
4.04353e-60
2.25548e-60
5.98138e-65
4.04353e-60
1.12339e-64
4.04353e-60
1.12339e-64
2.97106e-60
8.65952e-65
2.55941e-55
4.04353e-60
1.98652e-55
2.97106e-60
5.98138e-65
1.05786e-69
1.12339e-64
1.93163e-69
1.05786e-69
2.14943e-74
1.93163e-69
4.00384e-74
1.93163e-69
4.00384e-74
1.45109e-69
3.07457e-74
1.12339e-64
1.93163e-69
8.65952e-65
1.45109e-69
8.65952e-65
1.45109e-69
4.70169e-65
7.80165e-70
1.45109e-69
3.07457e-74
7.80165e-70
1.6697e-74
7.80165e-70
1.6697e-74
1.12211e-71
2.33875e-76
4.70169e-65
7.80165e-70
7.65854e-67
1.12211e-71
1.98652e-55
2.97106e-60
1.0771e-55
1.58203e-60
2.97106e-60
8.65952e-65
1.58203e-60
4.70169e-65
1.58203e-60
4.70169e-65
2.54247e-62
7.65854e-67
1.0771e-55
1.58203e-60
2.04861e-57
2.54247e-62
2.04861e-57
2.54247e-62
-1.04762e-55
-1.54605e-60
2.54247e-62
7.65854e-67
-1.54605e-60
-4.59223e-65
-1.54605e-60
-4.59223e-65
-2.97202e-60
-8.65651e-65
-1.04762e-55
-1.54605e-60
-1.98527e-55
-2.97202e-60
7.65854e-67
1.12211e-71
-4.59223e-65
-7.64295e-70
1.12211e-71
2.33875e-76
-7.64295e-70
-1.63642e-74
-7.64295e-70
-1.63642e-74
-1.45132e-69
-3.07402e-74
-4.59223e-65
-7.64295e-70
-8.65651e-65
-1.45132e-69
-8.65651e-65
-1.45132e-69
-1.13373e-64
-1.94836e-69
-1.45132e-69
-3.07402e-74
-1.94836e-69
-4.03599e-74
-1.94836e-69
-4.03599e-74
-1.06978e-69
-2.17224e-74
-1.13373e-64
-1.94836e-69
-6.0546e-65
-1.06978e-69
-1.98527e-55
-2.97202e-60
-2.58644e-55
-4.08364e-60
-2.97202e-60
-8.65651e-65
-4.08364e-60
-1.13373e-64
-4.08364e-60
-1.13373e-64
-2.28442e-60
-6.0546e-65
-2.58644e-55
-4.08364e-60
-1.36224e-55
-2.28442e-60
8.02354e-39
-1.84225e-44
-3.03216e-37
2.8869e-43
-1.84225e-44
4.51639e-48
2.8869e-43
-1.97296e-46
2.8869e-43
-1.97296e-46
4.52108e-43
-3.7788e-46
-3.03216e-37
2.8869e-43
-5.92393e-37
4.52108e-43
4.51639e-48
3.06202e-53
-1.97296e-46
-1.77684e-51
3.06202e-53
2.04861e-57
-1.77684e-51
-1.04762e-55
-1.77684e-51
-1.04762e-55
-3.49444e-51
-1.98527e-55
-1.97296e-46
-1.77684e-51
-3.7788e-46
-3.49444e-51
-3.7788e-46
-3.49444e-51
-4.90601e-46
-5.11329e-51
-3.49444e-51
-1.98527e-55
-5.11329e-51
-2.58644e-55
-5.11329e-51
-2.58644e-55
-3.02934e-51
-1.36224e-55
-4.90601e-46
-5.11329e-51
-2.53933e-46
-3.02934e-51
-5.92393e-37
4.52108e-43
-7.76923e-37
-3.12383e-43
4.52108e-43
-3.7788e-46
-3.12383e-43
-4.90601e-46
-3.12383e-43
-4.90601e-46
-7.8151e-43
-2.53933e-46
-7.76923e-37
-3.12383e-43
-3.98887e-37
-7.8151e-43
2.14943e-74
3.61259e-79
4.00384e-74
6.64504e-79
3.61259e-79
6.19258e-84
6.64504e-79
1.14882e-83
6.64504e-79
1.14882e-83
5.0448e-79
8.81139e-84
4.00384e-74
6.64504e-79
3.07457e-74
5.0448e-79
6.19258e-84
9.55713e-89
1.14882e-83
1.76322e-88
9.55713e-89
1.44088e-93
1.76322e-88
2.6678e-93
1.76322e-88
2.6678e-93
1.34604e-88
2.04649e-93
1.14882e-83
1.76322e-88
8.81139e-84
1.34604e-88
8.81139e-84
1.34604e-88
4.78626e-84
7.29585e-89
1.34604e-88
2.04649e-93
7.29585e-89
1.11198e-93
7.29585e-89
1.11198e-93
8.1133e-91
1.16827e-95
4.78626e-84
7.29585e-89
5.79456e-86
8.1133e-91
3.07457e-74
5.0448e-79
1.6697e-74
2.7265e-79
5.0448e-79
8.81139e-84
2.7265e-79
4.78626e-84
2.7265e-79
4.78626e-84
3.45779e-81
5.79456e-86
1.6697e-74
2.7265e-79
2.33875e-76
3.45779e-81
1.44088e-93
2.02538e-98
2.6678e-93
3.7409e-98
2.02538e-98
2.7418e-103
3.7409e-98
5.07131e-103
3.7409e-98
5.07131e-103
2.8647e-98
3.89268e-103
2.6678e-93
3.7409e-98
2.04649e-93
2.8647e-98
2.7418e-103
3.51461e-108
5.07131e-103
6.49354e-108
3.51461e-108
4.32354e-113
6.49354e-108
7.99211e-113
6.49354e-108
7.99211e-113
4.98185e-108
6.13897e-113
5.07131e-103
6.49354e-108
3.89268e-103
4.98185e-108
3.89268e-103
4.98185e-108
2.11576e-103
2.70682e-108
4.98185e-108
6.13897e-113
2.70682e-108
3.33739e-113
2.70682e-108
3.33739e-113
2.30153e-110
2.65952e-115
2.11576e-103
2.70682e-108
1.93421e-105
2.30153e-110
2.04649e-93
2.8647e-98
1.11198e-93
1.55518e-98
2.8647e-98
3.89268e-103
1.55518e-98
2.11576e-103
1.55518e-98
2.11576e-103
1.51293e-100
1.93421e-105
1.11198e-93
1.55518e-98
1.16827e-95
1.51293e-100
1.16827e-95
1.51293e-100
-1.09543e-93
-1.53379e-98
1.51293e-100
1.93421e-105
-1.53379e-98
-2.08838e-103
-1.53379e-98
-2.08838e-103
-2.86474e-98
-3.89257e-103
-1.09543e-93
-1.53379e-98
-2.0464e-93
-2.86474e-98
1.93421e-105
2.30153e-110
-2.08838e-103
-2.67427e-108
2.30153e-110
2.65952e-115
-2.67427e-108
-3.29974e-113
-2.67427e-108
-3.29974e-113
-4.98184e-108
-6.13884e-113
-2.08838e-103
-2.67427e-108
-3.89257e-103
-4.98184e-108
-3.89257e-103
-4.98184e-108
-5.0984e-103
-6.52599e-108
-4.98184e-108
-6.13884e-113
-6.52599e-108
-8.02936e-113
-6.52599e-108
-8.02936e-113
-3.53758e-108
-4.34992e-113
-5.0984e-103
-6.52599e-108
-2.761e-103
-3.53758e-108
-2.0464e-93
-2.86474e-98
-2.68413e-93
-3.76234e-98
-2.86474e-98
-3.89257e-103
-3.76234e-98
-5.0984e-103
-3.76234e-98
-5.0984e-103
-2.04056e-98
-2.761e-103
-2.68413e-93
-3.76234e-98
-1.45246e-93
-2.04056e-98
2.33875e-76
3.45779e-81
-1.63642e-74
-2.67762e-79
3.45779e-81
5.79456e-86
-2.67762e-79
-4.70403e-84
-2.67762e-79
-4.70403e-84
-5.04519e-79
-8.81062e-84
-1.63642e-74
-2.67762e-79
-3.07402e-74
-5.04519e-79
5.79456e-86
8.1133e-91
-4.70403e-84
-7.18115e-89
8.1133e-91
1.16827e-95
-7.18115e-89
-1.09543e-93
-7.18115e-89
-1.09543e-93
-1.34609e-88
-2.0464e-93
-4.70403e-84
-7.18115e-89
-8.81062e-84
-1.34609e-88
-8.81062e-84
-1.34609e-88
-1.15687e-83
-1.77482e-88
-1.34609e-88
-2.0464e-93
-1.77482e-88
-2.68413e-93
-1.77482e-88
-2.68413e-93
-9.63927e-89
-1.45246e-93
-1.15687e-83
-1.77482e-88
-6.24971e-84
-9.63927e-89
-3.07402e-74
-5.04519e-79
-4.03599e-74
-6.69519e-79
-5.04519e-79
-8.81062e-84
-6.69519e-79
-1.15687e-83
-6.69519e-79
-1.15687e-83
-3.64817e-79
-6.24971e-84
-4.03599e-74
-6.69519e-79
-2.17224e-74
-3.64817e-79
4.32354e-113
5.0755e-118
7.99211e-113
9.37697e-118
5.0755e-118
5.7197e-123
9.37697e-118
1.05684e-122
9.37697e-118
1.05684e-122
7.20248e-118
8.123e-123
7.99211e-113
9.37697e-118
6.13897e-113
7.20248e-118
5.7197e-123
6.17887e-128
1.05684e-122
1.14132e-127
6.17887e-128
6.41765e-133
1.14132e-127
1.18538e-132
1.14132e-127
1.18538e-132
8.77342e-128
9.11572e-133
1.05684e-122
1.14132e-127
8.123e-123
8.77342e-128
8.123e-123
8.77342e-128
4.4165e-123
4.76986e-128
8.77342e-128
9.11572e-133
4.76986e-128
4.95643e-133
4.76986e-128
4.95643e-133
3.09706e-130
3.01074e-135
4.4165e-123
4.76986e-128
3.07148e-125
3.09706e-130
6.13897e-113
7.20248e-118
3.33739e-113
3.91505e-118
7.20248e-118
8.123e-123
3.91505e-118
4.4165e-123
3.91505e-118
4.4165e-123
2.9088e-120
3.07148e-125
3.33739e-113
3.91505e-118
2.65952e-115
2.9088e-120
6.41765e-133
6.40942e-138
1.18538e-132
1.18361e-137
6.40942e-138
6.16589e-143
1.18361e-137
1.13853e-142
1.18361e-137
1.13853e-142
9.10352e-138
8.75901e-143
1.18538e-132
1.18361e-137
9.11572e-133
9.10352e-138
6.16589e-143
5.71702e-148
1.13853e-142
1.05547e-147
5.71702e-148
5.11519e-153
1.05547e-147
9.44255e-153
1.05547e-147
9.44255e-153
8.1212e-148
7.26673e-153
1.13853e-142
1.05547e-147
8.75901e-143
8.1212e-148
8.75901e-143
8.1212e-148
4.76236e-143
4.41538e-148
8.1212e-148
7.26673e-153
4.41538e-148
3.95074e-153
4.41538e-148
3.95074e-153
2.19148e-150
1.83422e-155
4.76236e-143
4.41538e-148
2.52838e-145
2.19148e-150
9.11572e-133
9.10352e-138
4.95643e-133
4.94958e-138
9.10352e-138
8.75901e-143
4.94958e-138
4.76236e-143
4.94958e-138
4.76236e-143
2.80929e-140
2.52838e-145
4.95643e-133
4.94958e-138
3.01074e-135
2.80929e-140
3.01074e-135
2.80929e-140
-4.91379e-133
-4.9098e-138
2.80929e-140
2.52838e-145
-4.9098e-138
-4.72653e-143
-4.9098e-138
-4.72653e-143
-9.10329e-138
-8.75876e-143
-4.91379e-133
-4.9098e-138
-9.11549e-133
-9.10329e-138
2.52838e-145
2.19148e-150
-4.72653e-143
-4.38433e-148
2.19148e-150
1.83422e-155
-4.38433e-148
-3.92474e-153
-4.38433e-148
-3.92474e-153
-8.12096e-148
-7.26649e-153
-4.72653e-143
-4.38433e-148
-8.75876e-143
-8.12096e-148
-8.75876e-143
-8.12096e-148
-1.14205e-142
-1.05852e-147
-8.12096e-148
-7.26649e-153
-1.05852e-147
-9.46799e-153
-1.05852e-147
-9.46799e-153
-5.73859e-148
-5.13321e-153
-1.14205e-142
-1.05852e-147
-6.19081e-143
-5.73859e-148
-9.11549e-133
-9.10329e-138
-1.18958e-132
-1.18753e-137
-9.10329e-138
-8.75876e-143
-1.18753e-137
-1.14205e-142
-1.18753e-137
-1.14205e-142
-6.43717e-138
-6.19081e-143
-1.18958e-132
-1.18753e-137
-6.44741e-133
-6.43717e-138
2.65952e-115
2.9088e-120
-3.29974e-113
-3.87389e-118
2.9088e-120
3.07148e-125
-3.87389e-118
-4.37302e-123
-3.87389e-118
-4.37302e-123
-7.2024e-118
-8.12282e-123
-3.29974e-113
-3.87389e-118
-6.13884e-113
-7.2024e-118
3.07148e-125
3.09706e-130
-4.37302e-123
-4.72602e-128
3.09706e-130
3.01074e-135
-4.72602e-128
-4.91379e-133
-4.72602e-128
-4.91379e-133
-8.77325e-128
-9.11549e-133
-4.37302e-123
-4.72602e-128
-8.12282e-123
-8.77325e-128
-8.12282e-123
-8.77325e-128
-1.06114e-122
-1.14566e-127
-8.77325e-128
-9.11549e-133
-1.14566e-127
-1.18958e-132
-1.14566e-127
-1.18958e-132
-6.20956e-128
-6.44741e-133
-1.06114e-122
-1.14566e-127
-5.75013e-123
-6.20956e-128
-6.13884e-113
-7.2024e-118
-8.02936e-113
-9.41782e-118
-7.2024e-118
-8.12282e-123
-9.41782e-118
-1.06114e-122
-9.41782e-118
-1.06114e-122
-5.10442e-118
-5.75013e-123
-8.02936e-113
-9.41782e-118
-4.34992e-113
-5.10442e-118
5.11519e-153
4.41967e-158
9.44255e-153
8.15749e-158
4.41967e-158
3.69111e-163
8.15749e-158
6.81199e-163
8.15749e-158
6.81199e-163
6.27856e-158
5.24364e-163
9.44255e-153
8.15749e-158
7.26673e-153
6.27856e-158
3.69111e-163
2.98179e-168
6.81199e-163
5.50226e-168
2.98179e-168
2.33177e-173
5.50226e-168
4.30232e-173
5.50226e-168
4.30232e-173
4.23588e-168
3.31243e-173
6.81199e-163
5.50226e-168
5.24364e-163
4.23588e-168
5.24364e-163
4.23588e-168
2.85059e-163
2.30263e-168
4.23588e-168
3.31243e-173
2.30263e-168
1.80056e-173
2.30263e-168
1.80056e-173
8.75015e-171
6.40245e-176
2.85059e-163
2.30263e-168
1.15793e-165
8.75015e-171
7.26673e-153
6.27856e-158
3.95074e-153
3.41333e-158
6.27856e-158
5.24364e-163
3.41333e-158
2.85059e-163
3.41333e-158
2.85059e-163
1.48205e-160
1.15793e-165
3.95074e-153
3.41333e-158
1.83422e-155
1.48205e-160
2.33177e-173
1.76633e-178
4.30232e-173
3.25869e-178
1.76633e-178
1.29697e-183
3.25869e-178
2.39252e-183
3.25869e-178
2.39252e-183
2.50913e-178
1.84234e-183
4.30232e-173
3.25869e-178
3.31243e-173
2.50913e-178
1.29697e-183
9.23672e-189
2.39252e-183
1.70374e-188
9.23672e-189
6.38403e-194
1.70374e-188
1.17745e-193
1.70374e-188
1.17745e-193
1.31204e-188
9.06797e-194
2.39252e-183
1.70374e-188
1.84234e-183
1.31204e-188
1.84234e-183
1.31204e-188
1.00135e-183
7.13081e-189
1.31204e-188
9.06797e-194
7.13081e-189
4.92814e-194
7.13081e-189
4.92814e-194
2.07869e-191
1.34493e-196
1.00135e-183
7.13081e-189
3.11848e-186
2.07869e-191
3.31243e-173
2.50913e-178
1.80056e-173
1.36383e-178
2.50913e-178
1.84234e-183
1.36383e-178
1.00135e-183
1.36383e-178
1.00135e-183
4.53804e-181
3.11848e-186
1.80056e-173
1.36383e-178
6.40245e-176
4.53804e-181
6.40245e-176
4.53804e-181
-1.79146e-173
-1.35738e-178
4.53804e-181
3.11848e-186
-1.35738e-178
-9.96915e-184
-1.35738e-178
-9.96915e-184
-2.50903e-178
-1.84226e-183
-1.79146e-173
-1.35738e-178
-3.3123e-173
-2.50903e-178
3.11848e-186
2.07869e-191
-9.96915e-184
-7.10125e-189
2.07869e-191
1.34493e-196
-7.10125e-189
-4.909e-194
-7.10125e-189
-4.909e-194
-1.31198e-188
-9.06757e-194
-9.96915e-184
-7.10125e-189
-1.84226e-183
-1.31198e-188
-1.84226e-183
-1.31198e-188
-2.39679e-183
-1.70658e-188
-1.31198e-188
-9.06757e-194
-1.70658e-188
-1.17928e-193
-1.70658e-188
-1.17928e-193
-9.25679e-189
-6.39698e-194
-2.39679e-183
-1.70658e-188
-1.29999e-183
-9.25679e-189
-3.3123e-173
-2.50903e-178
-4.31112e-173
-3.26492e-178
-2.50903e-178
-1.84226e-183
-3.26492e-178
-2.39679e-183
-3.26492e-178
-2.39679e-183
-1.77074e-178
-1.29999e-183
-4.31112e-173
-3.26492e-178
-2.338e-173
-1.77074e-178
1.83422e-155
1.48205e-160
-3.92474e-153
-3.39232e-158
1.48205e-160
1.15793e-165
-3.39232e-158
-2.83416e-163
-3.39232e-158
-2.83416e-163
-6.27834e-158
-5.24345e-163
-3.92474e-153
-3.39232e-158
-7.26649e-153
-6.27834e-158
1.15793e-165
8.75015e-171
-2.83416e-163
-2.29021e-168
8.75015e-171
6.40245e-176
-2.29021e-168
-1.79146e-173
-2.29021e-168
-1.79146e-173
-4.23572e-168
-3.3123e-173
-2.83416e-163
-2.29021e-168
-5.24345e-163
-4.23572e-168
-5.24345e-163
-4.23572e-168
-6.82799e-163
-5.51432e-168
-4.23572e-168
-3.3123e-173
-5.51432e-168
-4.31112e-173
-5.51432e-168
-4.31112e-173
-2.99033e-168
-2.338e-173
-6.82799e-163
-5.51432e-168
-3.70244e-163
-2.99033e-168
-7.26649e-153
-6.27834e-158
-9.46799e-153
-8.17802e-158
-6.27834e-158
-5.24345e-163
-8.17802e-158
-6.82799e-163
-8.17802e-158
-6.82799e-163
-4.4342e-158
-3.70244e-163
-9.46799e-153
-8.17802e-158
-5.13321e-153
-4.4342e-158
6.38403e-194
4.28448e-199
1.17745e-193
7.90148e-199
4.28448e-199
2.79353e-204
7.90148e-199
5.15145e-204
7.90148e-199
5.15145e-204
6.08555e-199
3.96773e-204
1.17745e-193
7.90148e-199
9.06797e-194
6.08555e-199
2.79353e-204
1.77042e-209
5.15145e-204
3.26452e-209
1.77042e-209
1.09111e-214
3.26452e-209
2.01178e-214
3.26452e-209
2.01178e-214
2.51449e-209
1.54963e-214
5.15145e-204
3.26452e-209
3.96773e-204
2.51449e-209
3.96773e-204
2.51449e-209
2.15612e-204
1.36635e-209
2.51449e-209
1.54963e-214
1.36635e-209
8.42021e-215
1.36635e-209
8.42021e-215
3.06249e-212
1.768e-217
2.15612e-204
1.36635e-209
5.15961e-207
3.06249e-212
9.06797e-194
6.08555e-199
4.92814e-194
3.30713e-199
6.08555e-199
3.96773e-204
3.30713e-199
2.15612e-204
3.30713e-199
2.15612e-204
8.45074e-202
5.15961e-207
4.92814e-194
3.30713e-199
1.34493e-196
8.45074e-202
1.09111e-214
6.54215e-220
2.01178e-214
1.20616e-219
6.54215e-220
3.81784e-225
1.20616e-219
7.0384e-225
1.20616e-219
7.0384e-225
9.29115e-220
5.42193e-225
2.01178e-214
1.20616e-219
1.54963e-214
9.29115e-220
3.81784e-225
2.16936e-230
7.0384e-225
3.9991e-230
2.16936e-230
1.20068e-235
3.9991e-230
2.21327e-235
3.9991e-230
2.21327e-235
3.08075e-230
1.70506e-235
7.0384e-225
3.9991e-230
5.42193e-225
3.08075e-230
5.42193e-225
3.08075e-230
2.94587e-225
1.67378e-230
3.08075e-230
1.70506e-235
1.67378e-230
9.26333e-236
1.67378e-230
9.26333e-236
2.89273e-233
1.50099e-238
2.94587e-225
1.67378e-230
5.43146e-228
2.89273e-233
1.54963e-214
9.29115e-220
8.42021e-215
5.0483e-220
9.29115e-220
5.42193e-225
5.0483e-220
2.94587e-225
5.0483e-220
2.94587e-225
9.93193e-223
5.43146e-228
8.42021e-215
5.0483e-220
1.768e-217
9.93193e-223
1.768e-217
9.93193e-223
-8.39498e-215
-5.03412e-220
9.93193e-223
5.43146e-228
-5.03412e-220
-2.93811e-225
-5.03412e-220
-2.93811e-225
-9.29068e-220
-5.42165e-225
-8.39498e-215
-5.03412e-220
-1.54956e-214
-9.29068e-220
5.43146e-228
2.89273e-233
-2.93811e-225
-1.66965e-230
2.89273e-233
1.50099e-238
-1.66965e-230
-9.24184e-236
-1.66965e-230
-9.24184e-236
-3.08059e-230
-1.70497e-235
-2.93811e-225
-1.66965e-230
-5.42165e-225
-3.08059e-230
-5.42165e-225
-3.08059e-230
-7.04561e-225
-4.00292e-230
-3.08059e-230
-1.70497e-235
-4.00292e-230
-2.21524e-235
-4.00292e-230
-2.21524e-235
-2.17207e-230
-1.20208e-235
-7.04561e-225
-4.00292e-230
-3.82295e-225
-2.17207e-230
-1.54956e-214
-9.29068e-220
-2.01414e-214
-1.20748e-219
-9.29068e-220