<VTKFile type="UnstructuredGrid" version="0.1" byte_order="LittleEndian">
<UnstructuredGrid>
<Piece NumberOfPoints="2048" NumberOfCells="512">
<Points>
<DataArray type="Float64" NumberOfComponents="3" format="ascii">
0 0 0
0.125 0 0
0 0.125 0
0.125 0.125 0
0.125 0 0
0.25 0 0
0.125 0.125 0
0.25 0.125 0
0.125 0.125 0
0.25 0.125 0
0.125 0.25 0
0.25 0.25 0
0 0.125 0
0.125 0.125 0
0 0.25 0
0.125 0.25 0
0.25 0 0
0.375 0 0
0.25 0.125 0
0.375 0.125 0
0.375 0 0
0.5 0 0
0.375 0.125 0
0.5 0.125 0
0.375 0.125 0
0.5 0.125 0
0.375 0.25 0
0.5 0.25 0
0.25 0.125 0
0.375 0.125 0
0.25 0.25 0
0.375 0.25 0
0.25 0.25 0
0.375 0.25 0
0.25 0.375 0
0.375 0.375 0
0.375 0.25 0
0.5 0.25 0
0.375 0.375 0
0.5 0.375 0
0.375 0.375 0
0.5 0.375 0
0.375 0.5 0
0.5 0.5 0
0.25 0.375 0
0.375 0.375 0
0.25 0.5 0
0.375 0.5 0
0 0.25 0
0.125 0.25 0
0 0.375 0
0.125 0.375 0
0.125 0.25 0
0.25 0.25 0
0.125 0.375 0
0.25 0.375 0
0.125 0.375 0
0.25 0.375 0
0.125 0.5 0
0.25 0.5 0
0 0.375 0
0.125 0.375 0
0 0.5 0
0.125 0.5 0
0.5 0 0
0.625 0 0
0.5 0.125 0
0.625 0.125 0
0.625 0 0
0.75 0 0
0.625 0.125 0
0.75 0.125 0
0.625 0.125 0
0.75 0.125 0
0.625 0.25 0
0.75 0.25 0
0.5 0.125 0
0.625 0.125 0
0.5 0.25 0
0.625 0.25 0
0.75 0 0
0.875 0 0
0.75 0.125 0
0.875 0.125 0
0.875 0 0
1 0 0
0.875 0.125 0
1 0.125 0
0.875 0.125 0
1 0.125 0
0.875 0.25 0
1 0.25 0
0.75 0.125 0
0.875 0.125 0
0.75 0.25 0
0.875 0.25 0
0.75 0.25 0
0.875 0.25 0
0.75 0.375 0
0.875 0.375 0
0.875 0.25 0
1 0.25 0
0.875 0.375 0
1 0.375 0
0.875 0.375 0
1 0.375 0
0.875 0.5 0
1 0.5 0
0.75 0.375 0
0.875 0.375 0
0.75 0.5 0
0.875 0.5 0
0.5 0.25 0
0.625 0.25 0
0.5 0.375 0
0.625 0.375 0
0.625 0.25 0
0.75 0.25 0
0.625 0.375 0
0.75 0.375 0
0.625 0.375 0
0.75 0.375 0
0.625 0.5 0
0.75 0.5 0
0.5 0.375 0
0.625 0.375 0
0.5 0.5 0
0.625 0.5 0
0.5 0.5 0
0.625 0.5 0
0.5 0.625 0
0.625 0.625 0
0.625 0.5 0
0.75 0.5 0
0.625 0.625 0
0.75 0.625 0
0.625 0.625 0
0.75 0.625 0
0.625 0.75 0
0.75 0.75 0
0.5 0.625 0
0.625 0.625 0
0.5 0.75 0
0.625 0.75 0
0.75 0.5 0
0.875 0.5 0
0.75 0.625 0
0.875 0.625 0
0.875 0.5 0
1 0.5 0
0.875 0.625 0
1 0.625 0
0.875 0.625 0
1 0.625 0
0.875 0.75 0
1 0.75 0
0.75 0.625 0
0.875 0.625 0
0.75 0.75 0
0.875 0.75 0
0.75 0.75 0
0.875 0.75 0
0.75 0.875 0
0.875 0.875 0
0.875 0.75 0
1 0.75 0
0.875 0.875 0
1 0.875 0
0.875 0.875 0
1 0.875 0
0.875 1 0
1 1 0
0.75 0.875 0
0.875 0.875 0
0.75 1 0
0.875 1 0
0.5 0.75 0
0.625 0.75 0
0.5 0.875 0
0.625 0.875 0
0.625 0.75 0
0.75 0.75 0
0.625 0.875 0
0.75 0.875 0
0.625 0.875 0
0.75 0.875 0
0.625 1 0
0.75 1 0
0.5 0.875 0
0.625 0.875 0
0.5 1 0
0.625 1 0
0 0.5 0
0.125 0.5 0
0 0.625 0
0.125 0.625 0
0.125 0.5 0
0.25 0.5 0
0.125 0.625 0
0.25 0.625 0
0.125 0.625 0
0.25 0.625 0
0.125 0.75 0
0.25 0.75 0
0 0.625 0
0.125 0.625 0
0 0.75 0
0.125 0.75 0
0.25 0.5 0
0.375 0.5 0
0.25 0.625 0
0.375 0.625 0
0.375 0.5 0
0.5 0.5 0
0.375 0.625 0
0.5 0.625 0
0.375 0.625 0
0.5 0.625 0
0.375 0.75 0
0.5 0.75 0
0.25 0.625 0
0.375 0.625 0
0.25 0.75 0
0.375 0.75 0
0.25 0.75 0
0.375 0.75 0
0.25 0.875 0
0.375 0.875 0
0.375 0.75 0
0.5 0.75 0
0.375 0.875 0
0.5 0.875 0
0.375 0.875 0
0.5 0.875 0
0.375 1 0
0.5 1 0
0.25 0.875 0
0.375 0.875 0
0.25 1 0
0.375 1 0
0 0.75 0
0.125 0.75 0
0 0.875 0
0.125 0.875 0
0.125 0.75 0
0.25 0.75 0
0.125 0.875 0
0.25 0.875 0
0.125 0.875 0
0.25 0.875 0
0.125 1 0
0.25 1 0
0 0.875 0
0.125 0.875 0
0 1 0
0.125 1 0
1 0 0
1.125 0 0
1 0.125 0
1.125 0.125 0
1.125 0 0
1.25 0 0
1.125 0.125 0
1.25 0.125 0
1.125 0.125 0
1.25 0.125 0
1.125 0.25 0
1.25 0.25 0
1 0.125 0
1.125 0.125 0
1 0.25 0
1.125 0.25 0
1.25 0 0
1.375 0 0
1.25 0.125 0
1.375 0.125 0
1.375 0 0
1.5 0 0
1.375 0.125 0
1.5 0.125 0
1.375 0.125 0
1.5 0.125 0
1.375 0.25 0
1.5 0.25 0
1.25 0.125 0
1.375 0.125 0
1.25 0.25 0
1.375 0.25 0
1.25 0.25 0
1.375 0.25 0
1.25 0.375 0
1.375 0.375 0
1.375 0.25 0
1.5 0.25 0
1.375 0.375 0
1.5 0.375 0
1.375 0.375 0
1.5 0.375 0
1.375 0.5 0
1.5 0.5 0
1.25 0.375 0
1.375 0.375 0
1.25 0.5 0
1.375 0.5 0
1 0.25 0
1.125 0.25 0
1 0.375 0
1.125 0.375 0
1.125 0.25 0
1.25 0.25 0
1.125 0.375 0
1.25 0.375 0
1.125 0.375 0
1.25 0.375 0
1.125 0.5 0
1.25 0.5 0
1 0.375 0
1.125 0.375 0
1 0.5 0
1.125 0.5 0
1.5 0 0
1.625 0 0
1.5 0.125 0
1.625 0.125 0
1.625 0 0
1.75 0 0
1.625 0.125 0
1.75 0.125 0
1.625 0.125 0
1.75 0.125 0
1.625 0.25 0
1.75 0.25 0
1.5 0.125 0
1.625 0.125 0
1.5 0.25 0
1.625 0.25 0
1.75 0 0
1.875 0 0
1.75 0.125 0
1.875 0.125 0
1.875 0 0
2 0 0
1.875 0.125 0
2 0.125 0
1.875 0.125 0
2 0.125 0
1.875 0.25 0
2 0.25 0
1.75 0.125 0
1.875 0.125 0
1.75 0.25 0
1.875 0.25 0
1.75 0.25 0
1.875 0.25 0
1.75 0.375 0
1.875 0.375 0
1.875 0.25 0
2 0.25 0
1.875 0.375 0
2 0.375 0
1.875 0.375 0
2 0.375 0
1.875 0.5 0
2 0.5 0
1.75 0.375 0
1.875 0.375 0
1.75 0.5 0
1.875 0.5 0
1.5 0.25 0
1.625 0.25 0
1.5 0.375 0
1.625 0.375 0
1.625 0.25 0
1.75 0.25 0
1.625 0.375 0
1.75 0.375 0
1.625 0.375 0
1.75 0.375 0
1.625 0.5 0
1.75 0.5 0
1.5 0.375 0
1.625 0.375 0
1.5 0.5 0
1.625 0.5 0
1.5 0.5 0
1.625 0.5 0
1.5 0.625 0
1.625 0.625 0
1.625 0.5 0
1.75 0.5 0
1.625 0.625 0
1.75 0.625 0
1.625 0.625 0
1.75 0.625 0
1.625 0.75 0
1.75 0.75 0
1.5 0.625 0
1.625 0.625 0
1.5 0.75 0
1.625 0.75 0
1.75 0.5 0
1.875 0.5 0
1.75 0.625 0
1.875 0.625 0
1.875 0.5 0
2 0.5 0
1.875 0.625 0
2 0.625 0
1.875 0.625 0
2 0.625 0
1.875 0.75 0
2 0.75 0
1.75 0.625 0
1.875 0.625 0
1.75 0.75 0
1.875 0.75 0
1.75 0.75 0
1.875 0.75 0
1.75 0.875 0
1.875 0.875 0
1.875 0.75 0
2 0.75 0
1.875 0.875 0
2 0.875 0
1.875 0.875 0
2 0.875 0
1.875 1 0
2 1 0
1.75 0.875 0
1.875 0.875 0
1.75 1 0
1.875 1 0
1.5 0.75 0
1.625 0.75 0
1.5 0.875 0
1.625 0.875 0
1.625 0.75 0
1.75 0.75 0
1.625 0.875 0
1.75 0.875 0
1.625 0.875 0
1.75 0.875 0
1.625 1 0
1.75 1 0
1.5 0.875 0
1.625 0.875 0
1.5 1 0
1.625 1 0
1 0.5 0
1.125 0.5 0
1 0.625 0
1.125 0.625 0
1.125 0.5 0
1.25 0.5 0
1.125 0.625 0
1.25 0.625 0
1.125 0.625 0
1.25 0.625 0
1.125 0.75 0
1.25 0.75 0
1 0.625 0
1.125 0.625 0
1 0.75 0
1.125 0.75 0
1.25 0.5 0
1.375 0.5 0
1.25 0.625 0
1.375 0.625 0
1.375 0.5 0
1.5 0.5 0
1.375 0.625 0
1.5 0.625 0
1.375 0.625 0
1.5 0.625 0
1.375 0.75 0
1.5 0.75 0
1.25 0.625 0
1.375 0.625 0
1.25 0.75 0
1.375 0.75 0
1.25 0.75 0
1.375 0.75 0
1.25 0.875 0
1.375 0.875 0
1.375 0.75 0
1.5 0.75 0
1.375 0.875 0
1.5 0.875 0
1.375 0.875 0
1.5 0.875 0
1.375 1 0
1.5 1 0
1.25 0.875 0
1.375 0.875 0
1.25 1 0
1.375 1 0
1 0.75 0
1.125 0.75 0
1 0.875 0
1.125 0.875 0
1.125 0.75 0
1.25 0.75 0
1.125 0.875 0
1.25 0.875 0
1.125 0.875 0
1.25 0.875 0
1.125 1 0
1.25 1 0
1 0.875 0
1.125 0.875 0
1 1 0
1.125 1 0
2 0 0
2.125 0 0
2 0.125 0
2.125 0.125 0
2.125 0 0
2.25 0 0
2.125 0.125 0
2.25 0.125 0
2.125 0.125 0
2.25 0.125 0
2.125 0.25 0
2.25 0.25 0
2 0.125 0
2.125 0.125 0
2 0.25 0
2.125 0.25 0
2.25 0 0
2.375 0 0
2.25 0.125 0
2.375 0.125 0
2.375 0 0
2.5 0 0
2.375 0.125 0
2.5 0.125 0
2.375 0.125 0
2.5 0.125 0
2.375 0.25 0
2.5 0.25 0
2.25 0.125 0
2.375 0.125 0
2.25 0.25 0
2.375 0.25 0
2.25 0.25 0
2.375 0.25 0
2.25 0.375 0
2.375 0.375 0
2.375 0.25 0
2.5 0.25 0
2.375 0.375 0
2.5 0.375 0
2.375 0.375 0
2.5 0.375 0
2.375 0.5 0
2.5 0.5 0
2.25 0.375 0
2.375 0.375 0
2.25 0.5 0
2.375 0.5 0
2 0.25 0
2.125 0.25 0
2 0.375 0
2.125 0.375 0
2.125 0.25 0
2.25 0.25 0
2.125 0.375 0
2.25 0.375 0
2.125 0.375 0
2.25 0.375 0
2.125 0.5 0
2.25 0.5 0
2 0.375 0
2.125 0.375 0
2 0.5 0
2.125 0.5 0
2.5 0 0
2.625 0 0
2.5 0.125 0
2.625 0.125 0
2.625 0 0
2.75 0 0
2.625 0.125 0
2.75 0.125 0
2.625 0.125 0
2.75 0.125 0
2.625 0.25 0
2.75 0.25 0
2.5 0.125 0
2.625 0.125 0
2.5 0.25 0
2.625 0.25 0
2.75 0 0
2.875 0 0
2.75 0.125 0
2.875 0.125 0
2.875 0 0
3 0 0
2.875 0.125 0
3 0.125 0
2.875 0.125 0
3 0.125 0
2.875 0.25 0
3 0.25 0
2.75 0.125 0
2.875 0.125 0
2.75 0.25 0
2.875 0.25 0
2.75 0.25 0
2.875 0.25 0
2.75 0.375 0
2.875 0.375 0
2.875 0.25 0
3 0.25 0
2.875 0.375 0
3 0.375 0
2.875 0.375 0
3 0.375 0
2.875 0.5 0
3 0.5 0
2.75 0.375 0
2.875 0.375 0
2.75 0.5 0
2.875 0.5 0
2.5 0.25 0
2.625 0.25 0
2.5 0.375 0
2.625 0.375 0
2.625 0.25 0
2.75 0.25 0
2.625 0.375 0
2.75 0.375 0
2.625 0.375 0
2.75 0.375 0
2.625 0.5 0
2.75 0.5 0
2.5 0.375 0
2.625 0.375 0
2.5 0.5 0
2.625 0.5 0
2.5 0.5 0
2.625 0.5 0
2.5 0.625 0
2.625 0.625 0
2.625 0.5 0
2.75 0.5 0
2.625 0.625 0
2.75 0.625 0
2.625 0.625 0
2.75 0.625 0
2.625 0.75 0
2.75 0.75 0
2.5 0.625 0
2.625 0.625 0
2.5 0.75 0
2.625 0.75 0
2.75 0.5 0
2.875 0.5 0
2.75 0.625 0
2.875 0.625 0
2.875 0.5 0
3 0.5 0
2.875 0.625 0
3 0.625 0
2.875 0.625 0
3 0.625 0
2.875 0.75 0
3 0.75 0
2.75 0.625 0
2.875 0.625 0
2.75 0.75 0
2.875 0.75 0
2.75 0.75 0
2.875 0.75 0
2.75 0.875 0
2.875 0.875 0
2.875 0.75 0
3 0.75 0
2.875 0.875 0
3 0.875 0
2.875 0.875 0
3 0.875 0
2.875 1 0
3 1 0
2.75 0.875 0
2.875 0.875 0
2.75 1 0
2.875 1 0
2.5 0.75 0
2.625 0.75 0
2.5 0.875 0
2.625 0.875 0
2.625 0.75 0
2.75 0.75 0
2.625 0.875 0
2.75 0.875 0
2.625 0.875 0
2.75 0.875 0
2.625 1 0
2.75 1 0
2.5 0.875 0
2.625 0.875 0
2.5 1 0
2.625 1 0
2 0.5 0
2.125 0.5 0
2 0.625 0
2.125 0.625 0
2.125 0.5 0
2.25 0.5 0
2.125 0.625 0
2.25 0.625 0
2.125 0.625 0
2.25 0.625 0
2.125 0.75 0
2.25 0.75 0
2 0.625 0
2.125 0.625 0
2 0.75 0
2.125 0.75 0
2.25 0.5 0
2.375 0.5 0
2.25 0.625 0
2.375 0.625 0
2.375 0.5 0
2.5 0.5 0
2.375 0.625 0
2.5 0.625 0
2.375 0.625 0
2.5 0.625 0
2.375 0.75 0
2.5 0.75 0
2.25 0.625 0
2.375 0.625 0
2.25 0.75 0
2.375 0.75 0
2.25 0.75 0
2.375 0.75 0
2.25 0.875 0
2.375 0.875 0
2.375 0.75 0
2.5 0.75 0
2.375 0.875 0
2.5 0.875 0
2.375 0.875 0
2.5 0.875 0
2.375 1 0
2.5 1 0
2.25 0.875 0
2.375 0.875 0
2.25 1 0
2.375 1 0
2 0.75 0
2.125 0.75 0
2 0.875 0
2.125 0.875 0
2.125 0.75 0
2.25 0.75 0
2.125 0.875 0
2.25 0.875 0
2.125 0.875 0
2.25 0.875 0
2.125 1 0
2.25 1 0
2 0.875 0
2.125 0.875 0
2 1 0
2.125 1 0
3 0 0
3.125 0 0
3 0.125 0
3.125 0.125 0
3.125 0 0
3.25 0 0
3.125 0.125 0
3.25 0.125 0
3.125 0.125 0
3.25 0.125 0
3.125 0.25 0
3.25 0.25 0
3 0.125 0
3.125 0.125 0
3 0.25 0
3.125 0.25 0
3.25 0 0
3.375 0 0
3.25 0.125 0
3.375 0.125 0
3.375 0 0
3.5 0 0
3.375 0.125 0
3.5 0.125 0
3.375 0.125 0
3.5 0.125 0
3.375 0.25 0
3.5 0.25 0
3.25 0.125 0
3.375 0.125 0
3.25 0.25 0
3.375 0.25 0
3.25 0.25 0
3.375 0.25 0
3.25 0.375 0
3.375 0.375 0
3.375 0.25 0
3.5 0.25 0
3.375 0.375 0
3.5 0.375 0
3.375 0.375 0
3.5 0.375 0
3.375 0.5 0
3.5 0.5 0
3.25 0.375 0
3.375 0.375 0
3.25 0.5 0
[...]
<CellData Scalars="attribute">
<DataArray type="Int32" Name="attribute" format="ascii">
1
1
1
1
1
1
1
1
1
1
1
1
1
1
1
1
1
1
1
1
1
1
1
1
1
1
1
1
1
1
1
1
1
1
1
1
1
1
1
1
1
1
1
1
1
1
1
1
1
1
1
1
1
1
1
1
1
1
1
1
1
1
1
1
1
1
1
1
1
1
1
1
1
1
1
1
1
1
1
1
1
1
1
1
1
1
1
1
1
1
1
1
1
1
1
1
1
1
1
1
1
1
1
1
1
1
1
1
1
1
1
1
1
1
1
1
1
1
1
1
1
1
1
1
1
1
1
1
1
1
1
1
1
1
1
1
1
1
1
1
1
1
1
1
1
1
1
1
1
1
1
1
1
1
1
1
1
1
1
1
1
1
1
1
1
1
1
1
1
1
1
1
1
1
1
1
1
1
1
1
1
1
1
1
1
1
1
1
1
1
1
1
1
1
1
1
1
1
1
1
1
1
1
1
1
1
1
1
1
1
1
1
1
1
1
1
1
1
1
1
1
1
1
1
1
1
1
1
1
1
1
1
1
1
1
1
1
1
1
1
1
1
1
1
1
1
1
1
1
1
1
1
1
1
1
1
2
2
2
2
2
2
2
2
2
2
2
2
2
2
2
2
2
2
2
2
2
2
2
2
2
2
2
2
2
2
2
2
2
2
2
2
2
2
2
2
2
2
2
2
2
2
2
2
2
2
2
2
2
2
2
2
2
2
2
2
2
2
2
2
2
2
2
2
2
2
2
2
2
2
2
2
2
2
2
2
2
2
2
2
2
2
2
2
2
2
2
2
2
2
2
2
2
2
2
2
2
2
2
2
2
2
2
2
2
2
2
2
2
2
2
2
2
2
2
2
2
2
2
2
2
2
2
2
2
2
2
2
2
2
2
2
2
2
2
2
2
2
2
2
2
2
2
2
2
2
2
2
2
2
2
2
2
2
2
2
2
2
2
2
2
2
2
2
2
2
2
2
2
2
2
2
2
2
2
2
2
2
2
2
2
2
2
2
2
2
2
2
2
2
2
2
2
2
2
2
2
2
2
2
2
2
2
2
2
2
2
2
2
2
2
2
2
2
2
2
2
2
2
2
2
2
2
2
2
2
2
2
2
2
2
2
2
2
2
2
2
2
2
2
2
2
2
2
2
2
2
2
2
2
2
2
</DataArray>
</CellData>
<PointData >
<DataArray type="Float64" Name="Pressure" NumberOfComponents="1" format="ascii" >
-0.000207249
-1.83673e-07
-0.000339141
-3.04045e-07
-1.83673e-07
6.79616e-12
-3.04045e-07
1.17691e-11
-3.04045e-07
1.17691e-11
-2.04119e-07
7.99208e-12
-0.000339141
-3.04045e-07
-0.000226096
-2.04119e-07
6.79616e-12
-1.61231e-16
1.17691e-11
-2.87861e-16
-1.61231e-16
3.89793e-21
-2.87861e-16
7.21509e-21
-2.87861e-16
7.21509e-21
-2.00431e-16
5.15981e-21
1.17691e-11
-2.87861e-16
7.99208e-12
-2.00431e-16
7.99208e-12
-2.00431e-16
4.09561e-12
-1.02418e-16
-2.00431e-16
5.15981e-21
-1.02418e-16
2.63937e-21
-1.02418e-16
2.63937e-21
-3.38948e-18
8.37142e-23
4.09561e-12
-1.02418e-16
1.44344e-13
-3.38948e-18
-0.000226096
-2.04119e-07
-0.00011305
-1.0365e-07
-2.04119e-07
7.99208e-12
-1.0365e-07
4.09561e-12
-1.0365e-07
4.09561e-12
-2.29555e-09
1.44344e-13
-0.00011305
-1.0365e-07
-2.82481e-09
-2.29555e-09
3.89793e-21
-4.89804e-26
7.21509e-21
-9.3962e-26
-4.89804e-26
1.06723e-30
-9.3962e-26
2.0587e-30
-9.3962e-26
2.0587e-30
-6.96052e-26
1.54689e-30
7.21509e-21
-9.3962e-26
5.15981e-21
-6.96052e-26
1.06723e-30
-5.67545e-36
2.0587e-30
-1.20698e-35
-5.67545e-36
1.89282e-40
-1.20698e-35
3.70597e-40
-1.20698e-35
3.70597e-40
-9.75788e-36
2.86978e-40
2.0587e-30
-1.20698e-35
1.54689e-30
-9.75788e-36
1.54689e-30
-9.75788e-36
8.04197e-31
-5.14498e-36
-9.75788e-36
2.86978e-40
-5.14498e-36
1.524e-40
-5.14498e-36
1.524e-40
-1.48292e-37
3.88016e-42
8.04197e-31
-5.14498e-36
2.3064e-32
-1.48292e-37
5.15981e-21
-6.96052e-26
2.63937e-21
-3.58235e-26
-6.96052e-26
1.54689e-30
-3.58235e-26
8.04197e-31
-3.58235e-26
8.04197e-31
-1.0939e-27
2.3064e-32
2.63937e-21
-3.58235e-26
8.37142e-23
-1.0939e-27
8.37142e-23
-1.0939e-27
-2.50757e-21
3.41185e-26
-1.0939e-27
2.3064e-32
3.41185e-26
-7.69009e-31
3.41185e-26
-7.69009e-31
6.93557e-26
-1.5428e-30
-2.50757e-21
3.41185e-26
-5.13555e-21
6.93557e-26
2.3064e-32
-1.48292e-37
-7.69009e-31
4.9203e-36
-1.48292e-37
3.88016e-42
4.9203e-36
-1.46647e-40
4.9203e-36
-1.46647e-40
9.73155e-36
-2.86513e-40
-7.69009e-31
4.9203e-36
-1.5428e-30
9.73155e-36
-1.5428e-30
9.73155e-36
-2.09155e-30
1.22537e-35
9.73155e-36
-2.86513e-40
1.22537e-35
-3.75782e-40
1.22537e-35
-3.75782e-40
5.79931e-36
-1.92946e-40
-2.09155e-30
1.22537e-35
-1.09125e-30
5.79931e-36
-5.13555e-21
6.93557e-26
-7.34368e-21
9.55611e-26
6.93557e-26
-1.5428e-30
9.55611e-26
-2.09155e-30
9.55611e-26
-2.09155e-30
5.0169e-26
-1.09125e-30
-7.34368e-21
9.55611e-26
-4.0004e-21
5.0169e-26
-2.82481e-09
-2.29555e-09
0.000113045
9.99457e-08
-2.29555e-09
1.44344e-13
9.99457e-08
-3.86317e-12
9.99457e-08
-3.86317e-12
2.03073e-07
-7.92822e-12
0.000113045
9.99457e-08
0.000226095
2.03073e-07
1.44344e-13
-3.38948e-18
-3.86317e-12
9.70141e-17
-3.38948e-18
8.37142e-23
9.70141e-17
-2.50757e-21
9.70141e-17
-2.50757e-21
1.99175e-16
-5.13555e-21
-3.86317e-12
9.70141e-17
-7.92822e-12
1.99175e-16
-7.92822e-12
1.99175e-16
-1.19868e-11
2.93216e-16
1.99175e-16
-5.13555e-21
2.93216e-16
-7.34368e-21
2.93216e-16
-7.34368e-21
1.65791e-16
-4.0004e-21
-1.19868e-11
2.93216e-16
-7.01911e-12
1.65791e-16
0.000226095
2.03073e-07
0.000339145
3.07467e-07
2.03073e-07
-7.92822e-12
3.07467e-07
-1.19868e-11
3.07467e-07
-1.19868e-11
1.87298e-07
-7.01911e-12
0.000339145
3.07467e-07
0.000207254
1.87298e-07
1.89282e-40
1.6919e-46
3.70597e-40
6.04568e-47
1.6919e-46
2.61162e-50
6.04568e-47
5.06791e-50
6.04568e-47
5.06791e-50
-1.10976e-46
3.95517e-50
3.70597e-40
6.04568e-47
2.86978e-40
-1.10976e-46
2.61162e-50
1.43814e-55
5.06791e-50
2.43361e-55
1.43814e-55
2.98784e-60
2.43361e-55
5.69372e-60
2.43361e-55
5.69372e-60
1.67953e-55
4.41952e-60
5.06791e-50
2.43361e-55
3.95517e-50
1.67953e-55
3.95517e-50
1.67953e-55
2.13162e-50
8.75412e-56
1.67953e-55
4.41952e-60
8.75412e-56
2.39632e-60
8.75412e-56
2.39632e-60
1.47152e-57
4.5583e-62
2.13162e-50
8.75412e-56
4.72254e-52
1.47152e-57
2.86978e-40
-1.10976e-46
1.524e-40
-7.52269e-47
-1.10976e-46
3.95517e-50
-7.52269e-47
2.13162e-50
-7.52269e-47
2.13162e-50
-4.23049e-48
4.72254e-52
1.524e-40
-7.52269e-47
3.88016e-42
-4.23049e-48
2.98784e-60
2.29607e-65
5.69372e-60
4.11573e-65
2.29607e-65
2.78066e-70
4.11573e-65
5.22274e-70
4.11573e-65
5.22274e-70
3.02373e-65
4.02608e-70
5.69372e-60
4.11573e-65
4.41952e-60
3.02373e-65
2.78066e-70
2.23066e-75
5.22274e-70
4.07292e-75
2.23066e-75
2.04731e-80
4.07292e-75
3.81371e-80
4.07292e-75
3.81371e-80
3.05952e-75
2.92865e-80
5.22274e-70
4.07292e-75
4.02608e-70
3.05952e-75
4.02608e-70
3.05952e-75
2.18599e-70
1.64489e-75
3.05952e-75
2.92865e-80
1.64489e-75
1.59047e-80
1.64489e-75
1.59047e-80
2.3657e-77
2.22801e-82
2.18599e-70
1.64489e-75
3.56121e-72
2.3657e-77
4.41952e-60
3.02373e-65
2.39632e-60
1.61001e-65
3.02373e-65
4.02608e-70
1.61001e-65
2.18599e-70
1.61001e-65
2.18599e-70
2.58695e-67
3.56121e-72
2.39632e-60
1.61001e-65
4.5583e-62
2.58695e-67
4.5583e-62
2.58695e-67
-2.33071e-60
-1.57341e-65
2.58695e-67
3.56121e-72
-1.57341e-65
-2.1351e-70
-1.57341e-65
-2.1351e-70
-3.02472e-65
-4.02467e-70
-2.33071e-60
-1.57341e-65
-4.41674e-60
-3.02472e-65
3.56121e-72
2.3657e-77
-2.1351e-70
-1.61144e-75
2.3657e-77
2.22801e-82
-1.61144e-75
-1.55877e-80
-1.61144e-75
-1.55877e-80
-3.06e-75
-2.92812e-80
-2.1351e-70
-1.61144e-75
-4.02467e-70
-3.06e-75
-4.02467e-70
-3.06e-75
-5.27079e-70
-4.10818e-75
-3.06e-75
-2.92812e-80
-4.10818e-75
-3.84433e-80
-4.10818e-75
-3.84433e-80
-2.25579e-75
-2.06904e-80
-5.27079e-70
-4.10818e-75
-2.81471e-70
-2.25579e-75
-4.41674e-60
-3.02472e-65
-5.75386e-60
-4.15655e-65
-3.02472e-65
-4.02467e-70
-4.15655e-65
-5.27079e-70
-4.15655e-65
-5.27079e-70
-2.32552e-65
-2.81471e-70
-5.75386e-60
-4.15655e-65
-3.03029e-60
-2.32552e-65
3.88016e-42
-4.23049e-48
-1.46647e-40
6.86084e-47
-4.23049e-48
4.72254e-52
6.86084e-47
-2.06288e-50
6.86084e-47
-2.06288e-50
1.08871e-46
-3.95107e-50
-1.46647e-40
6.86084e-47
-2.86513e-40
1.08871e-46
4.72254e-52
1.47152e-57
-2.06288e-50
-8.54691e-56
1.47152e-57
4.5583e-62
-8.54691e-56
-2.33071e-60
-8.54691e-56
-2.33071e-60
-1.68109e-55
-4.41674e-60
-2.06288e-50
-8.54691e-56
-3.95107e-50
-1.68109e-55
-3.95107e-50
-1.68109e-55
-5.12953e-50
-2.46107e-55
-1.68109e-55
-4.41674e-60
-2.46107e-55
-5.75386e-60
-2.46107e-55
-5.75386e-60
-1.45876e-55
-3.03029e-60
-5.12953e-50
-2.46107e-55
-2.65492e-50
-1.45876e-55
-2.86513e-40
1.08871e-46
-3.75782e-40
-6.07787e-47
1.08871e-46
-3.95107e-50
-6.07787e-47
-5.12953e-50
-6.07787e-47
-5.12953e-50
-1.70857e-46
-2.65492e-50
-3.75782e-40
-6.07787e-47
-1.92946e-40
-1.70857e-46
2.04731e-80
1.54483e-85
3.81371e-80
2.84151e-85
1.54483e-85
1.18272e-90
2.84151e-85
2.19415e-90
2.84151e-85
2.19415e-90
2.15718e-85
1.68293e-90
3.81371e-80
2.84151e-85
2.92865e-80
2.15718e-85
1.18272e-90
8.10299e-96
2.19415e-90
1.49492e-95
8.10299e-96
5.3916e-101
1.49492e-95
9.9826e-101
1.49492e-95
9.9826e-101
1.14121e-95
7.65778e-101
2.19415e-90
1.49492e-95
1.68293e-90
1.14121e-95
1.68293e-90
1.14121e-95
9.14155e-91
6.1856e-96
1.14121e-95
7.65778e-101
6.1856e-96
4.16096e-101
6.1856e-96
4.16096e-101
6.87874e-98
4.37183e-103
9.14155e-91
6.1856e-96
1.10682e-92
6.87874e-98
2.92865e-80
2.15718e-85
1.59047e-80
1.16585e-85
2.15718e-85
1.68293e-90
1.16585e-85
9.14155e-91
1.16585e-85
9.14155e-91
1.47853e-87
1.10682e-92
1.59047e-80
1.16585e-85
2.22801e-82
1.47853e-87
5.3916e-101
3.32371e-106
9.9826e-101
6.13889e-106
3.32371e-106
1.96075e-111
6.13889e-106
3.62667e-111
6.13889e-106
3.62667e-111
4.70101e-106
2.78379e-111
9.9826e-101
6.13889e-106
7.65778e-101
4.70101e-106
1.96075e-111
1.08802e-116
3.62667e-111
2.0102e-116
1.08802e-116
5.75442e-122
2.0102e-116
1.06371e-121
2.0102e-116
1.06371e-121
1.54222e-116
8.17067e-122
3.62667e-111
2.0102e-116
2.78379e-111
1.54222e-116
2.78379e-111
1.54222e-116
1.51306e-111
8.37944e-117
1.54222e-116
8.17067e-122
8.37944e-117
4.4419e-122
8.37944e-117
4.4419e-122
7.12502e-119
3.53986e-124
1.51306e-111
8.37944e-117
1.3833e-113
7.12502e-119
7.65778e-101
4.70101e-106
4.16096e-101
2.55207e-106
4.70101e-106
2.78379e-111
2.55207e-106
1.51306e-111
2.55207e-106
1.51306e-111
2.4828e-108
1.3833e-113
4.16096e-101
2.55207e-106
4.37183e-103
2.4828e-108
4.37183e-103
2.4828e-108
-4.09901e-101
-2.51697e-106
2.4828e-108
1.3833e-113
-2.51697e-106
-1.49347e-111
-2.51697e-106
-1.49347e-111
-4.70107e-106
-2.78372e-111
-4.09901e-101
-2.51697e-106
-7.65743e-101
-4.70107e-106
1.3833e-113
7.12502e-119
-1.49347e-111
-8.27867e-117
7.12502e-119
3.53986e-124
-8.27867e-117
-4.39179e-122
-8.27867e-117
-4.39179e-122
-1.54222e-116
-8.17049e-122
-1.49347e-111
-8.27867e-117
-2.78372e-111
-1.54222e-116
-2.78372e-111
-1.54222e-116
-3.64604e-111
-2.02024e-116
-1.54222e-116
-8.17049e-122
-2.02024e-116
-1.06867e-121
-2.02024e-116
-1.06867e-121
-1.09513e-116
-5.78954e-122
-3.64604e-111
-2.02024e-116
-1.97448e-111
-1.09513e-116
-7.65743e-101
-4.70107e-106
-1.00437e-100
-6.17408e-106
-4.70107e-106
-2.78372e-111
-6.17408e-106
-3.64604e-111
-6.17408e-106
-3.64604e-111
-3.34863e-106
-1.97448e-111
-1.00437e-100
-6.17408e-106
-5.43492e-101
-3.34863e-106
2.22801e-82
1.47853e-87
-1.55877e-80
-1.14495e-85
1.47853e-87
1.10682e-92
-1.14495e-85
-8.98449e-91
-1.14495e-85
-8.98449e-91
-2.15734e-85
-1.68278e-90
-1.55877e-80
-1.14495e-85
-2.92812e-80
-2.15734e-85
1.10682e-92
6.87874e-98
-8.98449e-91
-6.08835e-96
6.87874e-98
4.37183e-103
-6.08835e-96
-4.09901e-101
-6.08835e-96
-4.09901e-101
-1.14126e-95
-7.65743e-101
-8.98449e-91
-6.08835e-96
-1.68278e-90
-1.14126e-95
-1.68278e-90
-1.14126e-95
-2.20953e-90
-1.50476e-95
-1.14126e-95
-7.65743e-101
-1.50476e-95
-1.00437e-100
-1.50476e-95
-1.00437e-100
-8.17264e-96
-5.43492e-101
-2.20953e-90
-1.50476e-95
-1.19363e-90
-8.17264e-96
-2.92812e-80
-2.15734e-85
-3.84433e-80
-2.86296e-85
-2.15734e-85
-1.68278e-90
-2.86296e-85
-2.20953e-90
-2.86296e-85
-2.20953e-90
-1.56005e-85
-1.19363e-90
-3.84433e-80
-2.86296e-85
-2.06904e-80
-1.56005e-85
5.75442e-122
2.88374e-127
1.06371e-121
5.32769e-127
2.88374e-127
1.37714e-132
5.32769e-127
2.54457e-132
5.32769e-127
2.54457e-132
4.0922e-127
1.95579e-132
1.06371e-121
5.32769e-127
8.17067e-122
4.0922e-127
1.37714e-132
6.25655e-138
2.54457e-132
1.15567e-137
6.25655e-138
2.7114e-143
1.15567e-137
5.00814e-143
1.15567e-137
5.00814e-143
8.88368e-138
3.85131e-143
2.54457e-132
1.15567e-137
1.95579e-132
8.88368e-138
1.95579e-132
8.88368e-138
1.06337e-132
4.8298e-138
8.88368e-138
3.85131e-143
4.8298e-138
2.09404e-143
4.8298e-138
2.09404e-143
3.13609e-140
1.27206e-145
1.06337e-132
4.8298e-138
7.39557e-135
3.13609e-140
8.17067e-122
4.0922e-127
4.4419e-122
2.22439e-127
4.0922e-127
1.95579e-132
2.22439e-127
1.06337e-132
2.22439e-127
1.06337e-132
1.65274e-129
7.39557e-135
4.4419e-122
2.22439e-127
3.53986e-124
1.65274e-129
2.7114e-143
1.12065e-148
5.00814e-143
2.06946e-148
1.12065e-148
4.42359e-154
2.06946e-148
8.16814e-154
2.06946e-148
8.16814e-154
1.59168e-148
6.28395e-154
5.00814e-143
2.06946e-148
3.85131e-143
1.59168e-148
4.42359e-154
1.66811e-159
8.16814e-154
3.07965e-159
1.66811e-159
6.01418e-165
3.07965e-159
1.1102e-164
3.07965e-159
1.1102e-164
2.3696e-159
8.54382e-165
8.16814e-154
3.07965e-159
6.28395e-154
2.3696e-159
6.28395e-154
2.3696e-159
3.41665e-154
1.28832e-159
2.3696e-159
8.54382e-165
1.28832e-159
4.64506e-165
1.28832e-159
4.64506e-165
6.39451e-162
2.15666e-167
3.41665e-154
1.28832e-159
1.814e-156
6.39451e-162
3.85131e-143
1.59168e-148
2.09404e-143
8.65399e-149
1.59168e-148
6.28395e-154
8.65399e-149
3.41665e-154
8.65399e-149
3.41665e-154
4.91203e-151
1.814e-156
2.09404e-143
8.65399e-149
1.27206e-145
4.91203e-151
1.27206e-145
4.91203e-151
-2.07603e-143
-8.58442e-149
4.91203e-151
1.814e-156
-8.58442e-149
-3.39095e-154
-8.58442e-149
-3.39095e-154
-1.59164e-148
-6.28377e-154
-2.07603e-143
-8.58442e-149
-3.85121e-143
-1.59164e-148
1.814e-156
6.39451e-162
-3.39095e-154
-1.27926e-159
6.39451e-162
2.15666e-167
-1.27926e-159
-4.61449e-165
-1.27926e-159
-4.61449e-165
-2.36953e-159
-8.54355e-165
-3.39095e-154
-1.27926e-159
-6.28377e-154
-2.36953e-159
-6.28377e-154
-2.36953e-159
-8.19339e-154
-3.08854e-159
-2.36953e-159
-8.54355e-165
-3.08854e-159
-1.1132e-164
-3.08854e-159
-1.1132e-164
-1.67441e-159
-6.03536e-165
-8.19339e-154
-3.08854e-159
-4.44147e-154
-1.67441e-159
-3.85121e-143
-1.59164e-148
-5.02589e-143
-2.07632e-148
-1.59164e-148
-6.28377e-154
-2.07632e-148
-8.19339e-154
-2.07632e-148
-8.19339e-154
-1.1255e-148
-4.44147e-154
-5.02589e-143
-2.07632e-148
-2.72398e-143
-1.1255e-148
3.53986e-124
1.65274e-129
-4.39179e-122
-2.20101e-127
1.65274e-129
7.39557e-135
-2.20101e-127
-1.0529e-132
-2.20101e-127
-1.0529e-132
-4.09216e-127
-1.95574e-132
-4.39179e-122
-2.20101e-127
-8.17049e-122
-4.09216e-127
7.39557e-135
3.13609e-140
-1.0529e-132
-4.78541e-138
3.13609e-140
1.27206e-145
-4.78541e-138
-2.07603e-143
-4.78541e-138
-2.07603e-143
-8.88351e-138
-3.85121e-143
-1.0529e-132
-4.78541e-138
-1.95574e-132
-8.88351e-138
-1.95574e-132
-8.88351e-138
-2.55491e-132
-1.16006e-137
-8.88351e-138
-3.85121e-143
-1.16006e-137
-5.02589e-143
-1.16006e-137
-5.02589e-143
-6.28762e-138
-2.72398e-143
-2.55491e-132
-1.16006e-137
-1.38447e-132
-6.28762e-138
-8.17049e-122
-4.09216e-127
-1.06867e-121
-5.35089e-127
-4.09216e-127
-1.95574e-132
-5.35089e-127
-2.55491e-132
-5.35089e-127
-2.55491e-132
-2.90017e-127
-1.38447e-132
-1.06867e-121
-5.35089e-127
-5.78954e-122
-2.90017e-127
6.01418e-165
2.0738e-170
1.1102e-164
3.82766e-170
2.0738e-170
6.84234e-176
3.82766e-170
1.26276e-175
3.82766e-170
1.26276e-175
2.94602e-170
9.72029e-176
1.1102e-164
3.82766e-170
8.54382e-165
2.94602e-170
6.84234e-176
2.16068e-181
1.26276e-175
3.98708e-181
2.16068e-181
6.53169e-187
3.98708e-181
1.20515e-186
3.98708e-181
1.20515e-186
3.06942e-181
9.27868e-187
1.26276e-175
3.98708e-181
9.72029e-176
3.06942e-181
9.72029e-176
3.06942e-181
5.28422e-176
1.66854e-181
3.06942e-181
9.27868e-187
1.66854e-181
5.04366e-187
1.66854e-181
5.04366e-187
6.3408e-184
1.7935e-189
5.28422e-176
1.66854e-181
2.14657e-178
6.3408e-184
8.54382e-165
2.94602e-170
4.64506e-165
1.6016e-170
2.94602e-170
9.72029e-176
1.6016e-170
5.28422e-176
1.6016e-170
5.28422e-176
6.95431e-173
2.14657e-178
4.64506e-165
1.6016e-170
2.15666e-167
6.95431e-173
6.53169e-187
1.89033e-192
1.20515e-186
3.48746e-192
1.89033e-192
5.23758e-198
3.48746e-192
9.66179e-198
3.48746e-192
9.66179e-198
2.68527e-192
7.43995e-198
1.20515e-186
3.48746e-192
9.27868e-187
2.68527e-192
5.23758e-198
1.38912e-203
9.66179e-198
2.56227e-203
1.38912e-203
3.52575e-209
2.56227e-203
6.50278e-209
2.56227e-203
6.50278e-209
1.97318e-203
5.00802e-209
9.66179e-198
2.56227e-203
7.43995e-198
1.97318e-203
7.43995e-198
1.97318e-203
4.04376e-198
1.07241e-203
1.97318e-203
5.00802e-209
1.07241e-203
2.72169e-209
1.07241e-203
2.72169e-209
3.12626e-206
7.42801e-212
4.04376e-198
1.07241e-203
1.25939e-200
3.12626e-206
9.27868e-187
2.68527e-192
5.04366e-187
1.45957e-192
2.68527e-192
7.43995e-198
1.45957e-192
4.04376e-198
1.45957e-192
4.04376e-198
4.85678e-195
1.25939e-200
5.04366e-187
1.45957e-192
1.7935e-189
4.85678e-195
1.7935e-189
4.85678e-195
-5.01819e-187
-1.45267e-192
4.85678e-195
1.25939e-200
-1.45267e-192
-4.02586e-198
-1.45267e-192
-4.02586e-198
-2.68516e-192
-7.43963e-198
-5.01819e-187
-1.45267e-192
-9.27831e-187
-2.68516e-192
1.25939e-200
3.12626e-206
-4.02586e-198
-1.06796e-203
3.12626e-206
7.42801e-212
-1.06796e-203
-2.71112e-209
-1.06796e-203
-2.71112e-209
-1.97309e-203
-5.0078e-209
-4.02586e-198
-1.06796e-203
-7.43963e-198
-1.97309e-203
-7.43963e-198
-1.97309e-203
-9.67902e-198
-2.56653e-203
-1.97309e-203
-5.0078e-209
-2.56653e-203
-6.51288e-209
-2.56653e-203
-6.51288e-209
-1.39214e-203
-3.53291e-209
-9.67902e-198
-2.56653e-203
-5.24978e-198
-1.39214e-203
-9.27831e-187
-2.68516e-192
-1.20762e-186
-3.49412e-192
-2.68516e-192
-7.43963e-198
-3.49412e-192
-9.67902e-198
-3.49412e-192
-9.67902e-198
-1.89505e-192
-5.24978e-198
-1.20762e-186
-3.49412e-192
-6.54915e-187
-1.89505e-192
2.15666e-167
6.95431e-173
-4.61449e-165
-1.59174e-170
6.95431e-173
2.14657e-178
-1.59174e-170
-5.25377e-176
-1.59174e-170
-5.25377e-176
-2.94592e-170
-9.71994e-176
-4.61449e-165
-1.59174e-170
-8.54355e-165
-2.94592e-170
2.14657e-178
6.3408e-184
-5.25377e-176
-1.65954e-181
6.3408e-184
1.7935e-189
-1.65954e-181
-5.01819e-187
-1.65954e-181
-5.01819e-187
-3.0693e-181
-9.27831e-187
-5.25377e-176
-1.65954e-181
-9.71994e-176
-3.0693e-181
-9.71994e-176
-3.0693e-181
-1.26573e-175
-3.99582e-181
-3.0693e-181
-9.27831e-187
-3.99582e-181
-1.20762e-186
-3.99582e-181
-1.20762e-186
-2.16687e-181
-6.54915e-187
-1.26573e-175
-3.99582e-181
-6.86334e-176
-2.16687e-181
-8.54355e-165
-2.94592e-170
-1.1132e-164
-3.83728e-170
-2.94592e-170
-9.71994e-176
-3.83728e-170
-1.26573e-175
-3.83728e-170
-1.26573e-175
-2.08062e-170
-6.86334e-176
-1.1132e-164
-3.83728e-170
-6.03536e-165
-2.08062e-170
3.52575e-209
8.56028e-215
6.50278e-209
1.57869e-214
8.56028e-215
1.98697e-220
1.57869e-214
3.6641e-220
1.57869e-214
3.6641e-220
1.21587e-214
2.82214e-220
6.50278e-209
1.57869e-214
5.00802e-209
1.21587e-214
1.98697e-220
4.40571e-226
3.6641e-220
8.12379e-226
4.40571e-226
9.32189e-232
8.12379e-226
1.71876e-231
8.12379e-226
1.71876e-231
6.25734e-226
1.32393e-231
3.6641e-220
8.12379e-226
2.82214e-220
6.25734e-226
2.82214e-220
6.25734e-226
1.53359e-220
3.40018e-226
6.25734e-226
1.32393e-231
3.40018e-226
7.1938e-232
3.40018e-226
7.1938e-232
7.6213e-229
1.51055e-234
1.53359e-220
3.40018e-226
3.67003e-223
7.6213e-229
5.00802e-209
1.21587e-214
2.72169e-209
6.60754e-215
1.21587e-214
2.82214e-220
6.60754e-215
1.53359e-220
6.60754e-215
1.53359e-220
1.68849e-217
3.67003e-223
2.72169e-209
6.60754e-215
7.42801e-212
1.68849e-217
9.32189e-232
1.87956e-237
1.71876e-231
3.46529e-237
1.87956e-237
3.60492e-243
3.46529e-237
6.64586e-243
3.46529e-237
6.64586e-243
2.66934e-237
5.11954e-243
1.71876e-231
3.46529e-237
1.32393e-231
2.66934e-237
3.60492e-243
6.56139e-249
6.64586e-243
1.20955e-248
6.56139e-249
1.12977e-254
1.20955e-248
2.08256e-254
1.20955e-248
2.08256e-254
9.31791e-249
1.60436e-254
6.64586e-243
1.20955e-248
5.11954e-243
9.31791e-249
5.11954e-243
9.31791e-249
2.78157e-243
5.06246e-249
9.31791e-249
1.60436e-254
5.06246e-249
8.71626e-255
5.06246e-249
8.71626e-255
8.74954e-252
1.4124e-257
2.78157e-243
5.06246e-249
5.12871e-246
8.74954e-252
1.32393e-231
2.66934e-237
7.1938e-232
1.45038e-237
2.66934e-237
5.11954e-243
1.45038e-237
2.78157e-243
1.45038e-237
2.78157e-243
2.85354e-240
5.12871e-246
7.1938e-232
1.45038e-237
1.51055e-234
2.85354e-240
1.51055e-234
2.85354e-240
-7.17225e-232
-1.4463e-237
2.85354e-240
5.12871e-246
-1.4463e-237
-2.77424e-243
-1.4463e-237
-2.77424e-243
-2.66921e-237
-5.11927e-243
-7.17225e-232
-1.4463e-237
-1.32386e-231
-2.66921e-237
5.12871e-246
8.74954e-252
-2.77424e-243
-5.04994e-249
8.74954e-252
1.4124e-257
-5.04994e-249
-8.69604e-255
-5.04994e-249
-8.69604e-255
-9.31742e-249
-1.60428e-254
-2.77424e-243
-5.04994e-249
-5.11927e-243
-9.31742e-249
-5.11927e-243
-9.31742e-249
-6.65267e-243
-1.21071e-248
-9.31742e-249
-1.60428e-254
-1.21071e-248
-2.08442e-254
-1.21071e-248
-2.08442e-254
-6.56957e-249
-1.13109e-254
-6.65267e-243
-1.21071e-248
-3.60974e-243
-6.56957e-249