<VTKFile type="UnstructuredGrid" version="0.1" byte_order="LittleEndian">
<UnstructuredGrid>
<Piece NumberOfPoints="2048" NumberOfCells="512">
<Points>
<DataArray type="Float64" NumberOfComponents="3" format="ascii">
0 0 0
0.125 0 0
0 0.125 0
0.125 0.125 0
0.125 0 0
0.25 0 0
0.125 0.125 0
0.25 0.125 0
0.125 0.125 0
0.25 0.125 0
0.125 0.25 0
0.25 0.25 0
0 0.125 0
0.125 0.125 0
0 0.25 0
0.125 0.25 0
0.25 0 0
0.375 0 0
0.25 0.125 0
0.375 0.125 0
0.375 0 0
0.5 0 0
0.375 0.125 0
0.5 0.125 0
0.375 0.125 0
0.5 0.125 0
0.375 0.25 0
0.5 0.25 0
0.25 0.125 0
0.375 0.125 0
0.25 0.25 0
0.375 0.25 0
0.25 0.25 0
0.375 0.25 0
0.25 0.375 0
0.375 0.375 0
0.375 0.25 0
0.5 0.25 0
0.375 0.375 0
0.5 0.375 0
0.375 0.375 0
0.5 0.375 0
0.375 0.5 0
0.5 0.5 0
0.25 0.375 0
0.375 0.375 0
0.25 0.5 0
0.375 0.5 0
0 0.25 0
0.125 0.25 0
0 0.375 0
0.125 0.375 0
0.125 0.25 0
0.25 0.25 0
0.125 0.375 0
0.25 0.375 0
0.125 0.375 0
0.25 0.375 0
0.125 0.5 0
0.25 0.5 0
0 0.375 0
0.125 0.375 0
0 0.5 0
0.125 0.5 0
0.5 0 0
0.625 0 0
0.5 0.125 0
0.625 0.125 0
0.625 0 0
0.75 0 0
0.625 0.125 0
0.75 0.125 0
0.625 0.125 0
0.75 0.125 0
0.625 0.25 0
0.75 0.25 0
0.5 0.125 0
0.625 0.125 0
0.5 0.25 0
0.625 0.25 0
0.75 0 0
0.875 0 0
0.75 0.125 0
0.875 0.125 0
0.875 0 0
1 0 0
0.875 0.125 0
1 0.125 0
0.875 0.125 0
1 0.125 0
0.875 0.25 0
1 0.25 0
0.75 0.125 0
0.875 0.125 0
0.75 0.25 0
0.875 0.25 0
0.75 0.25 0
0.875 0.25 0
0.75 0.375 0
0.875 0.375 0
0.875 0.25 0
1 0.25 0
0.875 0.375 0
1 0.375 0
0.875 0.375 0
1 0.375 0
0.875 0.5 0
1 0.5 0
0.75 0.375 0
0.875 0.375 0
0.75 0.5 0
0.875 0.5 0
0.5 0.25 0
0.625 0.25 0
0.5 0.375 0
0.625 0.375 0
0.625 0.25 0
0.75 0.25 0
0.625 0.375 0
0.75 0.375 0
0.625 0.375 0
0.75 0.375 0
0.625 0.5 0
0.75 0.5 0
0.5 0.375 0
0.625 0.375 0
0.5 0.5 0
0.625 0.5 0
0.5 0.5 0
0.625 0.5 0
0.5 0.625 0
0.625 0.625 0
0.625 0.5 0
0.75 0.5 0
0.625 0.625 0
0.75 0.625 0
0.625 0.625 0
0.75 0.625 0
0.625 0.75 0
0.75 0.75 0
0.5 0.625 0
0.625 0.625 0
0.5 0.75 0
0.625 0.75 0
0.75 0.5 0
0.875 0.5 0
0.75 0.625 0
0.875 0.625 0
0.875 0.5 0
1 0.5 0
0.875 0.625 0
1 0.625 0
0.875 0.625 0
1 0.625 0
0.875 0.75 0
1 0.75 0
0.75 0.625 0
0.875 0.625 0
0.75 0.75 0
0.875 0.75 0
0.75 0.75 0
0.875 0.75 0
0.75 0.875 0
0.875 0.875 0
0.875 0.75 0
1 0.75 0
0.875 0.875 0
1 0.875 0
0.875 0.875 0
1 0.875 0
0.875 1 0
1 1 0
0.75 0.875 0
0.875 0.875 0
0.75 1 0
0.875 1 0
0.5 0.75 0
0.625 0.75 0
0.5 0.875 0
0.625 0.875 0
0.625 0.75 0
0.75 0.75 0
0.625 0.875 0
0.75 0.875 0
0.625 0.875 0
0.75 0.875 0
0.625 1 0
0.75 1 0
0.5 0.875 0
0.625 0.875 0
0.5 1 0
0.625 1 0
0 0.5 0
0.125 0.5 0
0 0.625 0
0.125 0.625 0
0.125 0.5 0
0.25 0.5 0
0.125 0.625 0
0.25 0.625 0
0.125 0.625 0
0.25 0.625 0
0.125 0.75 0
0.25 0.75 0
0 0.625 0
0.125 0.625 0
0 0.75 0
0.125 0.75 0
0.25 0.5 0
0.375 0.5 0
0.25 0.625 0
0.375 0.625 0
0.375 0.5 0
0.5 0.5 0
0.375 0.625 0
0.5 0.625 0
0.375 0.625 0
0.5 0.625 0
0.375 0.75 0
0.5 0.75 0
0.25 0.625 0
0.375 0.625 0
0.25 0.75 0
0.375 0.75 0
0.25 0.75 0
0.375 0.75 0
0.25 0.875 0
0.375 0.875 0
0.375 0.75 0
0.5 0.75 0
0.375 0.875 0
0.5 0.875 0
0.375 0.875 0
0.5 0.875 0
0.375 1 0
0.5 1 0
0.25 0.875 0
0.375 0.875 0
0.25 1 0
0.375 1 0
0 0.75 0
0.125 0.75 0
0 0.875 0
0.125 0.875 0
0.125 0.75 0
0.25 0.75 0
0.125 0.875 0
0.25 0.875 0
0.125 0.875 0
0.25 0.875 0
0.125 1 0
0.25 1 0
0 0.875 0
0.125 0.875 0
0 1 0
0.125 1 0
1 0 0
1.125 0 0
1 0.125 0
1.125 0.125 0
1.125 0 0
1.25 0 0
1.125 0.125 0
1.25 0.125 0
1.125 0.125 0
1.25 0.125 0
1.125 0.25 0
1.25 0.25 0
1 0.125 0
1.125 0.125 0
1 0.25 0
1.125 0.25 0
1.25 0 0
1.375 0 0
1.25 0.125 0
1.375 0.125 0
1.375 0 0
1.5 0 0
1.375 0.125 0
1.5 0.125 0
1.375 0.125 0
1.5 0.125 0
1.375 0.25 0
1.5 0.25 0
1.25 0.125 0
1.375 0.125 0
1.25 0.25 0
1.375 0.25 0
1.25 0.25 0
1.375 0.25 0
1.25 0.375 0
1.375 0.375 0
1.375 0.25 0
1.5 0.25 0
1.375 0.375 0
1.5 0.375 0
1.375 0.375 0
1.5 0.375 0
1.375 0.5 0
1.5 0.5 0
1.25 0.375 0
1.375 0.375 0
1.25 0.5 0
1.375 0.5 0
1 0.25 0
1.125 0.25 0
1 0.375 0
1.125 0.375 0
1.125 0.25 0
1.25 0.25 0
1.125 0.375 0
1.25 0.375 0
1.125 0.375 0
1.25 0.375 0
1.125 0.5 0
1.25 0.5 0
1 0.375 0
1.125 0.375 0
1 0.5 0
1.125 0.5 0
1.5 0 0
1.625 0 0
1.5 0.125 0
1.625 0.125 0
1.625 0 0
1.75 0 0
1.625 0.125 0
1.75 0.125 0
1.625 0.125 0
1.75 0.125 0
1.625 0.25 0
1.75 0.25 0
1.5 0.125 0
1.625 0.125 0
1.5 0.25 0
1.625 0.25 0
1.75 0 0
1.875 0 0
1.75 0.125 0
1.875 0.125 0
1.875 0 0
2 0 0
1.875 0.125 0
2 0.125 0
1.875 0.125 0
2 0.125 0
1.875 0.25 0
2 0.25 0
1.75 0.125 0
1.875 0.125 0
1.75 0.25 0
1.875 0.25 0
1.75 0.25 0
1.875 0.25 0
1.75 0.375 0
1.875 0.375 0
1.875 0.25 0
2 0.25 0
1.875 0.375 0
2 0.375 0
1.875 0.375 0
2 0.375 0
1.875 0.5 0
2 0.5 0
1.75 0.375 0
1.875 0.375 0
1.75 0.5 0
1.875 0.5 0
1.5 0.25 0
1.625 0.25 0
1.5 0.375 0
1.625 0.375 0
1.625 0.25 0
1.75 0.25 0
1.625 0.375 0
1.75 0.375 0
1.625 0.375 0
1.75 0.375 0
1.625 0.5 0
1.75 0.5 0
1.5 0.375 0
1.625 0.375 0
1.5 0.5 0
1.625 0.5 0
1.5 0.5 0
1.625 0.5 0
1.5 0.625 0
1.625 0.625 0
1.625 0.5 0
1.75 0.5 0
1.625 0.625 0
1.75 0.625 0
1.625 0.625 0
1.75 0.625 0
1.625 0.75 0
1.75 0.75 0
1.5 0.625 0
1.625 0.625 0
1.5 0.75 0
1.625 0.75 0
1.75 0.5 0
1.875 0.5 0
1.75 0.625 0
1.875 0.625 0
1.875 0.5 0
2 0.5 0
1.875 0.625 0
2 0.625 0
1.875 0.625 0
2 0.625 0
1.875 0.75 0
2 0.75 0
1.75 0.625 0
1.875 0.625 0
1.75 0.75 0
1.875 0.75 0
1.75 0.75 0
1.875 0.75 0
1.75 0.875 0
1.875 0.875 0
1.875 0.75 0
2 0.75 0
1.875 0.875 0
2 0.875 0
1.875 0.875 0
2 0.875 0
1.875 1 0
2 1 0
1.75 0.875 0
1.875 0.875 0
1.75 1 0
1.875 1 0
1.5 0.75 0
1.625 0.75 0
1.5 0.875 0
1.625 0.875 0
1.625 0.75 0
1.75 0.75 0
1.625 0.875 0
1.75 0.875 0
1.625 0.875 0
1.75 0.875 0
1.625 1 0
1.75 1 0
1.5 0.875 0
1.625 0.875 0
1.5 1 0
1.625 1 0
1 0.5 0
1.125 0.5 0
1 0.625 0
1.125 0.625 0
1.125 0.5 0
1.25 0.5 0
1.125 0.625 0
1.25 0.625 0
1.125 0.625 0
1.25 0.625 0
1.125 0.75 0
1.25 0.75 0
1 0.625 0
1.125 0.625 0
1 0.75 0
1.125 0.75 0
1.25 0.5 0
1.375 0.5 0
1.25 0.625 0
1.375 0.625 0
1.375 0.5 0
1.5 0.5 0
1.375 0.625 0
1.5 0.625 0
1.375 0.625 0
1.5 0.625 0
1.375 0.75 0
1.5 0.75 0
1.25 0.625 0
1.375 0.625 0
1.25 0.75 0
1.375 0.75 0
1.25 0.75 0
1.375 0.75 0
1.25 0.875 0
1.375 0.875 0
1.375 0.75 0
1.5 0.75 0
1.375 0.875 0
1.5 0.875 0
1.375 0.875 0
1.5 0.875 0
1.375 1 0
1.5 1 0
1.25 0.875 0
1.375 0.875 0
1.25 1 0
1.375 1 0
1 0.75 0
1.125 0.75 0
1 0.875 0
1.125 0.875 0
1.125 0.75 0
1.25 0.75 0
1.125 0.875 0
1.25 0.875 0
1.125 0.875 0
1.25 0.875 0
1.125 1 0
1.25 1 0
1 0.875 0
1.125 0.875 0
1 1 0
1.125 1 0
2 0 0
2.125 0 0
2 0.125 0
2.125 0.125 0
2.125 0 0
2.25 0 0
2.125 0.125 0
2.25 0.125 0
2.125 0.125 0
2.25 0.125 0
2.125 0.25 0
2.25 0.25 0
2 0.125 0
2.125 0.125 0
2 0.25 0
2.125 0.25 0
2.25 0 0
2.375 0 0
2.25 0.125 0
2.375 0.125 0
2.375 0 0
2.5 0 0
2.375 0.125 0
2.5 0.125 0
2.375 0.125 0
2.5 0.125 0
2.375 0.25 0
2.5 0.25 0
2.25 0.125 0
2.375 0.125 0
2.25 0.25 0
2.375 0.25 0
2.25 0.25 0
2.375 0.25 0
2.25 0.375 0
2.375 0.375 0
2.375 0.25 0
2.5 0.25 0
2.375 0.375 0
2.5 0.375 0
2.375 0.375 0
2.5 0.375 0
2.375 0.5 0
2.5 0.5 0
2.25 0.375 0
2.375 0.375 0
2.25 0.5 0
2.375 0.5 0
2 0.25 0
2.125 0.25 0
2 0.375 0
2.125 0.375 0
2.125 0.25 0
2.25 0.25 0
2.125 0.375 0
2.25 0.375 0
2.125 0.375 0
2.25 0.375 0
2.125 0.5 0
2.25 0.5 0
2 0.375 0
2.125 0.375 0
2 0.5 0
2.125 0.5 0
2.5 0 0
2.625 0 0
2.5 0.125 0
2.625 0.125 0
2.625 0 0
2.75 0 0
2.625 0.125 0
2.75 0.125 0
2.625 0.125 0
2.75 0.125 0
2.625 0.25 0
2.75 0.25 0
2.5 0.125 0
2.625 0.125 0
2.5 0.25 0
2.625 0.25 0
2.75 0 0
2.875 0 0
2.75 0.125 0
2.875 0.125 0
2.875 0 0
3 0 0
2.875 0.125 0
3 0.125 0
2.875 0.125 0
3 0.125 0
2.875 0.25 0
3 0.25 0
2.75 0.125 0
2.875 0.125 0
2.75 0.25 0
2.875 0.25 0
2.75 0.25 0
2.875 0.25 0
2.75 0.375 0
2.875 0.375 0
2.875 0.25 0
3 0.25 0
2.875 0.375 0
3 0.375 0
2.875 0.375 0
3 0.375 0
2.875 0.5 0
3 0.5 0
2.75 0.375 0
2.875 0.375 0
2.75 0.5 0
2.875 0.5 0
2.5 0.25 0
2.625 0.25 0
2.5 0.375 0
2.625 0.375 0
2.625 0.25 0
2.75 0.25 0
2.625 0.375 0
2.75 0.375 0
2.625 0.375 0
2.75 0.375 0
2.625 0.5 0
2.75 0.5 0
2.5 0.375 0
2.625 0.375 0
2.5 0.5 0
2.625 0.5 0
2.5 0.5 0
2.625 0.5 0
2.5 0.625 0
2.625 0.625 0
2.625 0.5 0
2.75 0.5 0
2.625 0.625 0
2.75 0.625 0
2.625 0.625 0
2.75 0.625 0
2.625 0.75 0
2.75 0.75 0
2.5 0.625 0
2.625 0.625 0
2.5 0.75 0
2.625 0.75 0
2.75 0.5 0
2.875 0.5 0
2.75 0.625 0
2.875 0.625 0
2.875 0.5 0
3 0.5 0
2.875 0.625 0
3 0.625 0
2.875 0.625 0
3 0.625 0
2.875 0.75 0
3 0.75 0
2.75 0.625 0
2.875 0.625 0
2.75 0.75 0
2.875 0.75 0
2.75 0.75 0
2.875 0.75 0
2.75 0.875 0
2.875 0.875 0
2.875 0.75 0
3 0.75 0
2.875 0.875 0
3 0.875 0
2.875 0.875 0
3 0.875 0
2.875 1 0
3 1 0
2.75 0.875 0
2.875 0.875 0
2.75 1 0
2.875 1 0
2.5 0.75 0
2.625 0.75 0
2.5 0.875 0
2.625 0.875 0
2.625 0.75 0
2.75 0.75 0
2.625 0.875 0
2.75 0.875 0
2.625 0.875 0
2.75 0.875 0
2.625 1 0
2.75 1 0
2.5 0.875 0
2.625 0.875 0
2.5 1 0
2.625 1 0
2 0.5 0
2.125 0.5 0
2 0.625 0
2.125 0.625 0
2.125 0.5 0
2.25 0.5 0
2.125 0.625 0
2.25 0.625 0
2.125 0.625 0
2.25 0.625 0
2.125 0.75 0
2.25 0.75 0
2 0.625 0
2.125 0.625 0
2 0.75 0
2.125 0.75 0
2.25 0.5 0
2.375 0.5 0
2.25 0.625 0
2.375 0.625 0
2.375 0.5 0
2.5 0.5 0
2.375 0.625 0
2.5 0.625 0
2.375 0.625 0
2.5 0.625 0
2.375 0.75 0
2.5 0.75 0
2.25 0.625 0
2.375 0.625 0
2.25 0.75 0
2.375 0.75 0
2.25 0.75 0
2.375 0.75 0
2.25 0.875 0
2.375 0.875 0
2.375 0.75 0
2.5 0.75 0
2.375 0.875 0
2.5 0.875 0
2.375 0.875 0
2.5 0.875 0
2.375 1 0
2.5 1 0
2.25 0.875 0
2.375 0.875 0
2.25 1 0
2.375 1 0
2 0.75 0
2.125 0.75 0
2 0.875 0
2.125 0.875 0
2.125 0.75 0
2.25 0.75 0
2.125 0.875 0
2.25 0.875 0
2.125 0.875 0
2.25 0.875 0
2.125 1 0
2.25 1 0
2 0.875 0
2.125 0.875 0
2 1 0
2.125 1 0
3 0 0
3.125 0 0
3 0.125 0
3.125 0.125 0
3.125 0 0
3.25 0 0
3.125 0.125 0
3.25 0.125 0
3.125 0.125 0
3.25 0.125 0
3.125 0.25 0
3.25 0.25 0
3 0.125 0
3.125 0.125 0
3 0.25 0
3.125 0.25 0
3.25 0 0
3.375 0 0
3.25 0.125 0
3.375 0.125 0
3.375 0 0
3.5 0 0
3.375 0.125 0
3.5 0.125 0
3.375 0.125 0
3.5 0.125 0
3.375 0.25 0
3.5 0.25 0
3.25 0.125 0
3.375 0.125 0
3.25 0.25 0
3.375 0.25 0
3.25 0.25 0
3.375 0.25 0
3.25 0.375 0
3.375 0.375 0
3.375 0.25 0
3.5 0.25 0
3.375 0.375 0
3.5 0.375 0
3.375 0.375 0
3.5 0.375 0
3.375 0.5 0
3.5 0.5 0
3.25 0.375 0
3.375 0.375 0
3.25 0.5 0
[...]
<CellData Scalars="attribute">
<DataArray type="Int32" Name="attribute" format="ascii">
1
1
1
1
1
1
1
1
1
1
1
1
1
1
1
1
1
1
1
1
1
1
1
1
1
1
1
1
1
1
1
1
1
1
1
1
1
1
1
1
1
1
1
1
1
1
1
1
1
1
1
1
1
1
1
1
1
1
1
1
1
1
1
1
1
1
1
1
1
1
1
1
1
1
1
1
1
1
1
1
1
1
1
1
1
1
1
1
1
1
1
1
1
1
1
1
1
1
1
1
1
1
1
1
1
1
1
1
1
1
1
1
1
1
1
1
1
1
1
1
1
1
1
1
1
1
1
1
1
1
1
1
1
1
1
1
1
1
1
1
1
1
1
1
1
1
1
1
1
1
1
1
1
1
1
1
1
1
1
1
1
1
1
1
1
1
1
1
1
1
1
1
1
1
1
1
1
1
1
1
1
1
1
1
1
1
1
1
1
1
1
1
1
1
1
1
1
1
1
1
1
1
1
1
1
1
1
1
1
1
1
1
1
1
1
1
1
1
1
1
1
1
1
1
1
1
1
1
1
1
1
1
1
1
1
1
1
1
1
1
1
1
1
1
1
1
1
1
1
1
1
1
1
1
1
1
2
2
2
2
2
2
2
2
2
2
2
2
2
2
2
2
2
2
2
2
2
2
2
2
2
2
2
2
2
2
2
2
2
2
2
2
2
2
2
2
2
2
2
2
2
2
2
2
2
2
2
2
2
2
2
2
2
2
2
2
2
2
2
2
2
2
2
2
2
2
2
2
2
2
2
2
2
2
2
2
2
2
2
2
2
2
2
2
2
2
2
2
2
2
2
2
2
2
2
2
2
2
2
2
2
2
2
2
2
2
2
2
2
2
2
2
2
2
2
2
2
2
2
2
2
2
2
2
2
2
2
2
2
2
2
2
2
2
2
2
2
2
2
2
2
2
2
2
2
2
2
2
2
2
2
2
2
2
2
2
2
2
2
2
2
2
2
2
2
2
2
2
2
2
2
2
2
2
2
2
2
2
2
2
2
2
2
2
2
2
2
2
2
2
2
2
2
2
2
2
2
2
2
2
2
2
2
2
2
2
2
2
2
2
2
2
2
2
2
2
2
2
2
2
2
2
2
2
2
2
2
2
2
2
2
2
2
2
2
2
2
2
2
2
2
2
2
2
2
2
2
2
2
2
2
2
</DataArray>
</CellData>
<PointData >
<DataArray type="Float64" Name="Pressure" NumberOfComponents="1" format="ascii" >
-0.000587019
-9.91112e-07
-0.000960607
-1.64067e-06
-9.91112e-07
6.67068e-11
-1.64067e-06
1.15522e-10
-1.64067e-06
1.15522e-10
-1.10146e-06
7.84493e-11
-0.000960607
-1.64067e-06
-0.000640415
-1.10146e-06
6.67068e-11
-2.83932e-15
1.15522e-10
-5.06973e-15
-2.83932e-15
1.22564e-19
-5.06973e-15
2.26896e-19
-5.06973e-15
2.26896e-19
-3.53012e-15
1.62274e-19
1.15522e-10
-5.06973e-15
7.84493e-11
-3.53012e-15
7.84493e-11
-3.53012e-15
4.02028e-11
-1.80386e-15
-3.53012e-15
1.62274e-19
-1.80386e-15
8.30079e-20
-1.80386e-15
8.30079e-20
-5.97307e-17
2.63376e-21
4.02028e-11
-1.80386e-15
1.41803e-12
-5.97307e-17
-0.000640415
-1.10146e-06
-0.000320218
-5.59317e-07
-1.10146e-06
7.84493e-11
-5.59317e-07
4.02028e-11
-5.59317e-07
4.02028e-11
-1.23886e-08
1.41803e-12
-0.000320218
-5.59317e-07
-1.52428e-08
-1.23886e-08
1.22564e-19
-2.7435e-24
2.26896e-19
-5.26407e-24
-2.7435e-24
1.06716e-28
-5.26407e-24
2.05882e-28
-5.26407e-24
2.05882e-28
-3.90004e-24
1.54709e-28
2.26896e-19
-5.26407e-24
1.62274e-19
-3.90004e-24
1.06716e-28
-1.01085e-33
2.05882e-28
-2.15104e-33
-1.01085e-33
6.05704e-38
-2.15104e-33
1.18597e-37
-2.15104e-33
1.18597e-37
-1.73968e-33
9.18407e-38
2.05882e-28
-2.15104e-33
1.54709e-28
-1.73968e-33
1.54709e-28
-1.73968e-33
8.04324e-29
-9.17334e-34
-1.73968e-33
9.18407e-38
-9.17334e-34
4.87732e-38
-9.17334e-34
4.87732e-38
-2.64549e-35
1.24186e-39
8.04324e-29
-9.17334e-34
2.30721e-30
-2.64549e-35
1.62274e-19
-3.90004e-24
8.30079e-20
-2.00727e-24
-3.90004e-24
1.54709e-28
-2.00727e-24
8.04324e-29
-2.00727e-24
8.04324e-29
-6.13194e-26
2.30721e-30
8.30079e-20
-2.00727e-24
2.63376e-21
-6.13194e-26
2.63376e-21
-6.13194e-26
-7.88616e-20
1.9117e-24
-6.13194e-26
2.30721e-30
1.9117e-24
-7.69124e-29
1.9117e-24
-7.69124e-29
3.88606e-24
-1.543e-28
-7.88616e-20
1.9117e-24
-1.61511e-19
3.88606e-24
2.30721e-30
-2.64549e-35
-7.69124e-29
8.77253e-34
-2.64549e-35
1.24186e-39
8.77253e-34
-4.69321e-38
8.77253e-34
-4.69321e-38
1.73498e-33
-9.1692e-38
-7.69124e-29
8.77253e-34
-1.543e-28
1.73498e-33
-1.543e-28
1.73498e-33
-2.09167e-28
2.18381e-33
1.73498e-33
-9.1692e-38
2.18381e-33
-1.20256e-37
2.18381e-33
-1.20256e-37
1.03292e-33
-6.17429e-38
-2.09167e-28
2.18381e-33
-1.09119e-28
1.03292e-33
-1.61511e-19
3.88606e-24
-2.30941e-19
5.3537e-24
3.88606e-24
-1.543e-28
5.3537e-24
-2.09167e-28
5.3537e-24
-2.09167e-28
2.8101e-24
-1.09119e-28
-2.30941e-19
5.3537e-24
-1.25787e-19
2.8101e-24
-1.52428e-08
-1.23886e-08
0.000320193
5.39323e-07
-1.23886e-08
1.41803e-12
5.39323e-07
-3.79193e-11
5.39323e-07
-3.79193e-11
1.09582e-06
-7.78219e-11
0.000320193
5.39323e-07
0.000640408
1.09582e-06
1.41803e-12
-5.97307e-17
-3.79193e-11
1.70864e-15
-5.97307e-17
2.63376e-21
1.70864e-15
-7.88616e-20
1.70864e-15
-7.88616e-20
3.50797e-15
-1.61511e-19
-3.79193e-11
1.70864e-15
-7.78219e-11
3.50797e-15
-7.78219e-11
3.50797e-15
-1.17661e-10
5.1641e-15
3.50797e-15
-1.61511e-19
5.1641e-15
-2.30941e-19
5.1641e-15
-2.30941e-19
2.91966e-15
-1.25787e-19
-1.17661e-10
5.1641e-15
-6.8897e-11
2.91966e-15
0.000640408
1.09582e-06
0.00096063
1.65914e-06
1.09582e-06
-7.78219e-11
1.65914e-06
-1.17661e-10
1.65914e-06
-1.17661e-10
1.01067e-06
-6.8897e-11
0.00096063
1.65914e-06
0.000587043
1.01067e-06
6.05704e-38
9.92913e-44
1.18597e-37
3.85324e-44
9.92913e-44
2.70478e-47
3.85324e-44
5.24855e-47
3.85324e-44
5.24855e-47
-6.09848e-44
4.09607e-47
1.18597e-37
3.85324e-44
9.18407e-38
-6.09848e-44
2.70478e-47
2.69973e-52
5.24855e-47
4.57001e-52
2.69973e-52
1.01527e-56
4.57001e-52
1.93464e-56
4.57001e-52
1.93464e-56
3.15503e-52
1.50163e-56
5.24855e-47
4.57001e-52
4.09607e-47
3.15503e-52
4.09607e-47
3.15503e-52
2.20757e-47
1.64464e-52
3.15503e-52
1.50163e-56
1.64464e-52
8.14195e-57
1.64464e-52
8.14195e-57
2.76628e-54
1.54863e-58
2.20757e-47
1.64464e-52
4.89059e-49
2.76628e-54
9.18407e-38
-6.09848e-44
4.87732e-38
-4.17673e-44
-6.09848e-44
4.09607e-47
-4.17673e-44
2.20757e-47
-4.17673e-44
2.20757e-47
-2.39964e-45
4.89059e-49
4.87732e-38
-4.17673e-44
1.24186e-39
-2.39964e-45
1.01527e-56
1.42254e-61
1.93464e-56
2.55016e-61
1.42254e-61
3.14807e-66
2.55016e-61
5.91262e-66
2.55016e-61
5.91262e-66
1.8737e-61
4.55774e-66
1.93464e-56
2.55016e-61
1.50163e-56
1.8737e-61
3.14807e-66
4.64016e-71
5.91262e-66
8.4727e-71
4.64016e-71
7.85403e-76
8.4727e-71
1.46301e-75
8.4727e-71
1.46301e-75
6.36481e-71
1.12347e-75
5.91262e-66
8.4727e-71
4.55774e-66
6.36481e-71
4.55774e-66
6.36481e-71
2.47464e-66
3.42196e-71
6.36481e-71
1.12347e-75
3.42196e-71
6.1012e-76
3.42196e-71
6.1012e-76
4.92171e-73
8.54623e-78
2.47464e-66
3.42196e-71
4.03108e-68
4.92171e-73
1.50163e-56
1.8737e-61
8.14195e-57
9.97697e-62
1.8737e-61
4.55774e-66
9.97697e-62
2.47464e-66
9.97697e-62
2.47464e-66
1.6033e-63
4.03108e-68
8.14195e-57
9.97697e-62
1.54863e-58
1.6033e-63
1.54863e-58
1.6033e-63
-7.91905e-57
-9.75011e-62
1.6033e-63
4.03108e-68
-9.75011e-62
-2.41702e-66
-9.75011e-62
-2.41702e-66
-1.87431e-61
-4.55615e-66
-7.91905e-57
-9.75011e-62
-1.50068e-56
-1.87431e-61
4.03108e-68
4.92171e-73
-2.41702e-66
-3.35235e-71
4.92171e-73
8.54623e-78
-3.35235e-71
-5.9796e-76
-3.35235e-71
-5.9796e-76
-6.3658e-71
-1.12327e-75
-2.41702e-66
-3.35235e-71
-4.55615e-66
-6.3658e-71
-4.55615e-66
-6.3658e-71
-5.96702e-66
-8.54606e-71
-6.3658e-71
-1.12327e-75
-8.54606e-71
-1.47476e-75
-8.54606e-71
-1.47476e-75
-4.69244e-71
-7.93736e-76
-5.96702e-66
-8.54606e-71
-3.18661e-66
-4.69244e-71
-1.50068e-56
-1.87431e-61
-1.95508e-56
-2.57545e-61
-1.87431e-61
-4.55615e-66
-2.57545e-61
-5.96702e-66
-2.57545e-61
-5.96702e-66
-1.44078e-61
-3.18661e-66
-1.95508e-56
-2.57545e-61
-1.02969e-56
-1.44078e-61
1.24186e-39
-2.39964e-45
-4.69321e-38
3.80102e-44
-2.39964e-45
4.89059e-49
3.80102e-44
-2.13638e-47
3.80102e-44
-2.13638e-47
5.9777e-44
-4.09183e-47
-4.69321e-38
3.80102e-44
-9.1692e-38
5.9777e-44
4.89059e-49
2.76628e-54
-2.13638e-47
-1.60568e-52
2.76628e-54
1.54863e-58
-1.60568e-52
-7.91905e-57
-1.60568e-52
-7.91905e-57
-3.15795e-52
-1.50068e-56
-2.13638e-47
-1.60568e-52
-4.09183e-47
-3.15795e-52
-4.09183e-47
-3.15795e-52
-5.31237e-47
-4.62158e-52
-3.15795e-52
-1.50068e-56
-4.62158e-52
-1.95508e-56
-4.62158e-52
-1.95508e-56
-2.73844e-52
-1.02969e-56
-5.31237e-47
-4.62158e-52
-2.74962e-47
-2.73844e-52
-9.1692e-38
5.9777e-44
-1.20256e-37
-3.87652e-44
5.9777e-44
-4.09183e-47
-3.87652e-44
-5.31237e-47
-3.87652e-44
-5.31237e-47
-1.00285e-43
-2.74962e-47
-1.20256e-37
-3.87652e-44
-6.17429e-38
-1.00285e-43
7.85403e-76
1.09852e-80
1.46301e-75
2.02061e-80
1.09852e-80
1.56593e-85
2.02061e-80
2.90505e-85
2.02061e-80
2.90505e-85
1.534e-80
2.22817e-85
1.46301e-75
2.02061e-80
1.12347e-75
1.534e-80
1.56593e-85
2.00784e-90
2.90505e-85
3.7043e-90
2.00784e-90
2.51285e-95
3.7043e-90
4.65255e-95
3.7043e-90
4.65255e-95
2.82786e-90
3.56901e-95
2.90505e-85
3.7043e-90
2.22817e-85
2.82786e-90
2.22817e-85
2.82786e-90
1.21032e-85
1.53276e-90
2.82786e-90
3.56901e-95
1.53276e-90
1.93927e-95
1.53276e-90
1.93927e-95
1.7045e-92
2.03746e-97
1.21032e-85
1.53276e-90
1.46533e-87
1.7045e-92
1.12347e-75
1.534e-80
6.1012e-76
8.29063e-81
1.534e-80
2.22817e-85
8.29063e-81
1.21032e-85
8.29063e-81
1.21032e-85
1.05142e-82
1.46533e-87
6.1012e-76
8.29063e-81
8.54623e-78
1.05142e-82
2.51285e-95
2.92933e-100
4.65255e-95
5.4105e-100
2.92933e-100
3.28568e-105
5.4105e-100
6.0773e-105
5.4105e-100
6.0773e-105
4.14324e-100
4.66486e-105
4.65255e-95
5.4105e-100
3.56901e-95
4.14324e-100
3.28568e-105
3.48637e-110
6.0773e-105
6.44135e-110
3.48637e-110
3.54665e-115
6.44135e-110
6.55602e-115
6.44135e-110
6.55602e-115
4.94181e-110
5.03587e-115
6.0773e-105
6.44135e-110
4.66486e-105
4.94181e-110
4.66486e-105
4.94181e-110
2.53546e-105
2.68507e-110
4.94181e-110
5.03587e-115
2.68507e-110
2.7377e-115
2.68507e-110
2.7377e-115
2.28305e-112
2.18167e-117
2.53546e-105
2.68507e-110
2.31794e-107
2.28305e-112
3.56901e-95
4.14324e-100
1.93927e-95
2.24927e-100
4.14324e-100
4.66486e-105
2.24927e-100
2.53546e-105
2.24927e-100
2.53546e-105
2.18818e-102
2.31794e-107
1.93927e-95
2.24927e-100
2.03746e-97
2.18818e-102
2.03746e-97
2.18818e-102
-1.9104e-95
-2.21833e-100
2.18818e-102
2.31794e-107
-2.21833e-100
-2.50265e-105
-2.21833e-100
-2.50265e-105
-4.14329e-100
-4.66474e-105
-1.9104e-95
-2.21833e-100
-3.56885e-95
-4.14329e-100
2.31794e-107
2.28305e-112
-2.50265e-105
-2.65277e-110
2.28305e-112
2.18167e-117
-2.65277e-110
-2.70682e-115
-2.65277e-110
-2.70682e-115
-4.9418e-110
-5.03576e-115
-2.50265e-105
-2.65277e-110
-4.66474e-105
-4.9418e-110
-4.66474e-105
-4.9418e-110
-6.10976e-105
-6.47354e-110
-4.9418e-110
-5.03576e-115
-6.47354e-110
-6.58658e-115
-6.47354e-110
-6.58658e-115
-3.50915e-110
-3.56829e-115
-6.10976e-105
-6.47354e-110
-3.30869e-105
-3.50915e-110
-3.56885e-95
-4.14329e-100
-4.68103e-95
-5.44151e-100
-4.14329e-100
-4.66474e-105
-5.44151e-100
-6.10976e-105
-5.44151e-100
-6.10976e-105
-2.95129e-100
-3.30869e-105
-4.68103e-95
-5.44151e-100
-2.53304e-95
-2.95129e-100
8.54623e-78
1.05142e-82
-5.9796e-76
-8.14198e-81
1.05142e-82
1.46533e-87
-8.14198e-81
-1.18953e-85
-8.14198e-81
-1.18953e-85
-1.53412e-80
-2.22797e-85
-5.9796e-76
-8.14198e-81
-1.12327e-75
-1.53412e-80
1.46533e-87
1.7045e-92
-1.18953e-85
-1.50866e-90
1.7045e-92
2.03746e-97
-1.50866e-90
-1.9104e-95
-1.50866e-90
-1.9104e-95
-2.82796e-90
-3.56885e-95
-1.18953e-85
-1.50866e-90
-2.22797e-85
-2.82796e-90
-2.22797e-85
-2.82796e-90
-2.92542e-85
-3.72866e-90
-2.82796e-90
-3.56885e-95
-3.72866e-90
-4.68103e-95
-3.72866e-90
-4.68103e-95
-2.02509e-90
-2.53304e-95
-2.92542e-85
-3.72866e-90
-1.58038e-85
-2.02509e-90
-1.12327e-75
-1.53412e-80
-1.47476e-75
-2.03586e-80
-1.53412e-80
-2.22797e-85
-2.03586e-80
-2.92542e-85
-2.03586e-80
-2.92542e-85
-1.10934e-80
-1.58038e-85
-1.47476e-75
-2.03586e-80
-7.93736e-76
-1.10934e-80
3.54665e-115
3.43957e-120
6.55602e-115
6.35459e-120
3.43957e-120
3.1989e-125
6.35459e-120
5.91065e-125
6.35459e-120
5.91065e-125
4.88097e-120
4.543e-125
6.55602e-115
6.35459e-120
5.03587e-115
4.88097e-120
3.1989e-125
2.84893e-130
5.91065e-125
5.26235e-130
2.84893e-130
2.43685e-135
5.26235e-130
4.50103e-135
5.26235e-130
4.50103e-135
4.04521e-130
3.46134e-135
5.91065e-125
5.26235e-130
4.543e-125
4.04521e-130
4.543e-125
4.04521e-130
2.47005e-125
2.19926e-130
4.04521e-130
3.46134e-135
2.19926e-130
1.88201e-135
2.19926e-130
1.88201e-135
1.42799e-132
1.14322e-137
2.47005e-125
2.19926e-130
1.71783e-127
1.42799e-132
5.03587e-115
4.88097e-120
2.7377e-115
2.65315e-120
4.88097e-120
4.543e-125
2.65315e-120
2.47005e-125
2.65315e-120
2.47005e-125
1.97125e-122
1.71783e-127
2.7377e-115
2.65315e-120
2.18167e-117
1.97125e-122
2.43685e-135
2.00206e-140
4.50103e-135
3.69716e-140
2.00206e-140
1.58261e-145
3.69716e-140
2.92229e-145
3.69716e-140
2.92229e-145
2.84359e-140
2.24819e-145
4.50103e-135
3.69716e-140
3.46134e-135
2.84359e-140
1.58261e-145
1.2044e-150
2.92229e-145
2.22356e-150
1.2044e-150
8.83446e-156
2.22356e-150
1.63082e-155
2.22356e-150
1.63082e-155
1.71089e-150
1.25504e-155
2.92229e-145
2.22356e-150
2.24819e-145
1.71089e-150
2.24819e-145
1.71089e-150
1.22236e-145
9.30186e-151
1.71089e-150
1.25504e-155
9.30186e-151
6.82332e-156
9.30186e-151
6.82332e-156
4.61682e-153
3.16792e-158
1.22236e-145
9.30186e-151
6.48971e-148
4.61682e-153
3.46134e-135
2.84359e-140
1.88201e-135
1.54606e-140
2.84359e-140
2.24819e-145
1.54606e-140
1.22236e-145
1.54606e-140
1.22236e-145
8.77527e-143
6.48971e-148
1.88201e-135
1.54606e-140
1.14322e-137
8.77527e-143
1.14322e-137
8.77527e-143
-1.86582e-135
-1.53363e-140
8.77527e-143
6.48971e-148
-1.53363e-140
-1.21317e-145
-1.53363e-140
-1.21317e-145
-2.84352e-140
-2.24813e-145
-1.86582e-135
-1.53363e-140
-3.46125e-135
-2.84352e-140
6.48971e-148
4.61682e-153
-1.21317e-145
-9.23644e-151
4.61682e-153
3.16792e-158
-9.23644e-151
-6.77841e-156
-9.23644e-151
-6.77841e-156
-1.71084e-150
-1.255e-155
-1.21317e-145
-9.23644e-151
-2.24813e-145
-1.71084e-150
-2.24813e-145
-1.71084e-150
-2.93132e-145
-2.22998e-150
-1.71084e-150
-1.255e-155
-2.22998e-150
-1.63522e-155
-2.22998e-150
-1.63522e-155
-1.20895e-150
-8.86557e-156
-2.93132e-145
-2.22998e-150
-1.58901e-145
-1.20895e-150
-3.46125e-135
-2.84352e-140
-4.51698e-135
-3.7094e-140
-2.84352e-140
-2.24813e-145
-3.7094e-140
-2.93132e-145
-3.7094e-140
-2.93132e-145
-2.01073e-140
-1.58901e-145
-4.51698e-135
-3.7094e-140
-2.44815e-135
-2.01073e-140
2.18167e-117
1.97125e-122
-2.70682e-115
-2.62526e-120
1.97125e-122
1.71783e-127
-2.62526e-120
-2.44573e-125
-2.62526e-120
-2.44573e-125
-4.88092e-120
-4.5429e-125
-2.70682e-115
-2.62526e-120
-5.03576e-115
-4.88092e-120
1.71783e-127
1.42799e-132
-2.44573e-125
-2.17905e-130
1.42799e-132
1.14322e-137
-2.17905e-130
-1.86582e-135
-2.17905e-130
-1.86582e-135
-4.04513e-130
-3.46125e-135
-2.44573e-125
-2.17905e-130
-4.5429e-125
-4.04513e-130
-4.5429e-125
-4.04513e-130
-5.93468e-125
-5.28234e-130
-4.04513e-130
-3.46125e-135
-5.28234e-130
-4.51698e-135
-5.28234e-130
-4.51698e-135
-2.86308e-130
-2.44815e-135
-5.93468e-125
-5.28234e-130
-3.21591e-125
-2.86308e-130
-5.03576e-115
-4.88092e-120
-6.58658e-115
-6.38227e-120
-4.88092e-120
-4.5429e-125
-6.38227e-120
-5.93468e-125
-6.38227e-120
-5.93468e-125
-3.45916e-120
-3.21591e-125
-6.58658e-115
-6.38227e-120
-3.56829e-115
-3.45916e-120
8.83446e-156
6.25036e-161
1.63082e-155
1.15364e-160
6.25036e-161
4.26913e-166
1.15364e-160
7.87873e-166
1.15364e-160
7.87873e-166
8.87922e-161
6.06477e-166
1.63082e-155
1.15364e-160
1.25504e-155
8.87922e-161
4.26913e-166
2.81698e-171
7.87873e-166
5.19814e-171
2.81698e-171
1.79705e-176
5.19814e-171
3.31572e-176
5.19814e-171
3.31572e-176
4.00175e-171
2.55283e-176
7.87873e-166
5.19814e-171
6.06477e-166
4.00175e-171
6.06477e-166
4.00175e-171
3.29698e-166
2.17535e-171
4.00175e-171
2.55283e-176
2.17535e-171
1.38766e-176
2.17535e-171
1.38766e-176
8.26659e-174
4.93431e-179
3.29698e-166
2.17535e-171
1.33927e-168
8.26659e-174
1.25504e-155
8.87922e-161
6.82332e-156
4.82718e-161
8.87922e-161
6.06477e-166
4.82718e-161
3.29698e-166
4.82718e-161
3.29698e-166
2.09596e-163
1.33927e-168
6.82332e-156
4.82718e-161
3.16792e-158
2.09596e-163
1.79705e-176
1.10905e-181
3.31572e-176
2.04607e-181
1.10905e-181
6.6256e-187
2.04607e-181
1.22223e-186
2.04607e-181
1.22223e-186
1.57543e-181
9.41165e-187
3.31572e-176
2.04607e-181
2.55283e-176
1.57543e-181
6.6256e-187
3.83388e-192
1.22223e-186
7.07171e-192
3.83388e-192
2.14996e-197
7.07171e-192
3.96531e-197
7.07171e-192
3.96531e-197
5.44586e-192
3.05383e-197
1.22223e-186
7.07171e-192
9.41165e-187
5.44586e-192
9.41165e-187
5.44586e-192
5.11542e-187
2.95978e-192
5.44586e-192
3.05383e-197
2.95978e-192
1.65965e-197
2.95978e-192
1.65965e-197
8.6281e-195
4.52939e-200
5.11542e-187
2.95978e-192
1.5931e-189
8.6281e-195
2.55283e-176
1.57543e-181
1.38766e-176
8.56321e-182
1.57543e-181
9.41165e-187
8.56321e-182
5.11542e-187
8.56321e-182
5.11542e-187
2.84938e-184
1.5931e-189
1.38766e-176
8.56321e-182
4.93431e-179
2.84938e-184
4.93431e-179
2.84938e-184
-1.38065e-176
-8.52274e-182
2.84938e-184
1.5931e-189
-8.52274e-182
-5.09278e-187
-8.52274e-182
-5.09278e-187
-1.57537e-181
-9.41125e-187
-1.38065e-176
-8.52274e-182
-2.55273e-176
-1.57537e-181
1.5931e-189
8.6281e-195
-5.09278e-187
-2.94751e-192
8.6281e-195
4.52939e-200
-2.94751e-192
-1.65321e-197
-2.94751e-192
-1.65321e-197
-5.44562e-192
-3.05369e-197
-5.09278e-187
-2.94751e-192
-9.41125e-187
-5.44562e-192
-9.41125e-187
-5.44562e-192
-1.22441e-186
-7.08348e-192
-5.44562e-192
-3.05369e-197
-7.08348e-192
-3.97147e-197
-7.08348e-192
-3.97147e-197
-3.84221e-192
-2.15432e-197
-1.22441e-186
-7.08348e-192
-6.64103e-187
-3.84221e-192
-2.55273e-176
-1.57537e-181
-3.32251e-176
-2.04998e-181
-1.57537e-181
-9.41125e-187
-2.04998e-181
-1.22441e-186
-2.04998e-181
-1.22441e-186
-1.11181e-181
-6.64103e-187
-3.32251e-176
-2.04998e-181
-1.80186e-176
-1.11181e-181
3.16792e-158
2.09596e-163
-6.77841e-156
-4.79746e-161
2.09596e-163
1.33927e-168
-4.79746e-161
-3.27798e-166
-4.79746e-161
-3.27798e-166
-8.87892e-161
-6.06456e-166
-6.77841e-156
-4.79746e-161
-1.255e-155
-8.87892e-161
1.33927e-168
8.26659e-174
-3.27798e-166
-2.16362e-171
8.26659e-174
4.93431e-179
-2.16362e-171
-1.38065e-176
-2.16362e-171
-1.38065e-176
-4.0016e-171
-2.55273e-176
-3.27798e-166
-2.16362e-171
-6.06456e-166
-4.0016e-171
-6.06456e-166
-4.0016e-171
-7.89723e-166
-5.20953e-171
-4.0016e-171
-2.55273e-176
-5.20953e-171
-3.32251e-176
-5.20953e-171
-3.32251e-176
-2.82505e-171
-1.80186e-176
-7.89723e-166
-5.20953e-171
-4.28223e-166
-2.82505e-171
-1.255e-155
-8.87892e-161
-1.63522e-155
-1.15655e-160
-8.87892e-161
-6.06456e-166
-1.15655e-160
-7.89723e-166
-1.15655e-160
-7.89723e-166
-6.27091e-161
-4.28223e-166
-1.63522e-155
-1.15655e-160
-8.86557e-156
-6.27091e-161
2.14996e-197
1.16902e-202
3.96531e-197
2.15591e-202
1.16902e-202
6.16627e-208
2.15591e-202
1.1371e-207
2.15591e-202
1.1371e-207
1.66044e-202
8.75812e-208
3.96531e-197
2.15591e-202
3.05383e-197
1.66044e-202
6.16627e-208
3.1567e-213
1.1371e-207
5.8207e-213
3.1567e-213
1.56905e-218
5.8207e-213
2.893e-218
5.8207e-213
2.893e-218
4.4834e-213
2.22842e-218
1.1371e-207
5.8207e-213
8.75812e-208
4.4834e-213
8.75812e-208
4.4834e-213
4.75929e-208
2.43624e-213
4.4834e-213
2.22842e-218
2.43624e-213
1.21085e-218
2.43624e-213
1.21085e-218
5.46054e-216
2.54247e-221
4.75929e-208
2.43624e-213
1.13891e-210
5.46054e-216
3.05383e-197
1.66044e-202
1.65965e-197
9.02347e-203
1.66044e-202
8.75812e-208
9.02347e-203
4.75929e-208
9.02347e-203
4.75929e-208
2.3058e-205
1.13891e-210
1.65965e-197
9.02347e-203
4.52939e-200
2.3058e-205
1.56905e-218
7.57544e-224
2.893e-218
1.39666e-223
7.57544e-224
3.55393e-229
1.39666e-223
6.55187e-229
1.39666e-223
6.55187e-229
1.07586e-223
5.04714e-229
2.893e-218
1.39666e-223
2.22842e-218
1.07586e-223
3.55393e-229
1.62067e-234
6.55187e-229
2.98761e-234
1.62067e-234
7.18628e-240
2.98761e-234
1.32468e-239
2.98761e-234
1.32468e-239
2.30153e-234
1.02051e-239
6.55187e-229
2.98761e-234
5.04714e-229
2.30153e-234
5.04714e-229
2.30153e-234
2.74223e-229
1.25043e-234
2.30153e-234
1.02051e-239
1.25043e-234
5.54426e-240
1.25043e-234
5.54426e-240
2.16109e-237
8.98378e-243
2.74223e-229
1.25043e-234
5.05606e-232
2.16109e-237
2.22842e-218
1.07586e-223
1.21085e-218
5.84564e-224
1.07586e-223
5.04714e-229
5.84564e-224
2.74223e-229
5.84564e-224
2.74223e-229
1.15007e-226
5.05606e-232
1.21085e-218
5.84564e-224
2.54247e-221
1.15007e-226
2.54247e-221
1.15007e-226
-1.20723e-218
-5.82922e-224
1.15007e-226
5.05606e-232
-5.82922e-224
-2.73501e-229
-5.82922e-224
-2.73501e-229
-1.07581e-223
-5.04688e-229
-1.20723e-218
-5.82922e-224
-2.22831e-218
-1.07581e-223
5.05606e-232
2.16109e-237
-2.73501e-229
-1.24734e-234
2.16109e-237
8.98378e-243
-1.24734e-234
-5.5314e-240
-1.24734e-234
-5.5314e-240
-2.30141e-234
-1.02045e-239
-2.73501e-229
-1.24734e-234
-5.04688e-229
-2.30141e-234
-5.04688e-229
-2.30141e-234
-6.55858e-229
-2.99047e-234
-2.30141e-234
-1.02045e-239
-2.99047e-234
-1.32586e-239
-2.99047e-234
-1.32586e-239
-1.62269e-234
-7.19463e-240
-6.55858e-229
-2.99047e-234
-3.55868e-229
-1.62269e-234
-2.22831e-218
-1.07581e-223