<VTKFile type="UnstructuredGrid" version="0.1" byte_order="LittleEndian">
<UnstructuredGrid>
<Piece NumberOfPoints="2048" NumberOfCells="512">
<Points>
<DataArray type="Float64" NumberOfComponents="3" format="ascii">
0 0 0
0.125 0 0
0 0.125 0
0.125 0.125 0
0.125 0 0
0.25 0 0
0.125 0.125 0
0.25 0.125 0
0.125 0.125 0
0.25 0.125 0
0.125 0.25 0
0.25 0.25 0
0 0.125 0
0.125 0.125 0
0 0.25 0
0.125 0.25 0
0.25 0 0
0.375 0 0
0.25 0.125 0
0.375 0.125 0
0.375 0 0
0.5 0 0
0.375 0.125 0
0.5 0.125 0
0.375 0.125 0
0.5 0.125 0
0.375 0.25 0
0.5 0.25 0
0.25 0.125 0
0.375 0.125 0
0.25 0.25 0
0.375 0.25 0
0.25 0.25 0
0.375 0.25 0
0.25 0.375 0
0.375 0.375 0
0.375 0.25 0
0.5 0.25 0
0.375 0.375 0
0.5 0.375 0
0.375 0.375 0
0.5 0.375 0
0.375 0.5 0
0.5 0.5 0
0.25 0.375 0
0.375 0.375 0
0.25 0.5 0
0.375 0.5 0
0 0.25 0
0.125 0.25 0
0 0.375 0
0.125 0.375 0
0.125 0.25 0
0.25 0.25 0
0.125 0.375 0
0.25 0.375 0
0.125 0.375 0
0.25 0.375 0
0.125 0.5 0
0.25 0.5 0
0 0.375 0
0.125 0.375 0
0 0.5 0
0.125 0.5 0
0.5 0 0
0.625 0 0
0.5 0.125 0
0.625 0.125 0
0.625 0 0
0.75 0 0
0.625 0.125 0
0.75 0.125 0
0.625 0.125 0
0.75 0.125 0
0.625 0.25 0
0.75 0.25 0
0.5 0.125 0
0.625 0.125 0
0.5 0.25 0
0.625 0.25 0
0.75 0 0
0.875 0 0
0.75 0.125 0
0.875 0.125 0
0.875 0 0
1 0 0
0.875 0.125 0
1 0.125 0
0.875 0.125 0
1 0.125 0
0.875 0.25 0
1 0.25 0
0.75 0.125 0
0.875 0.125 0
0.75 0.25 0
0.875 0.25 0
0.75 0.25 0
0.875 0.25 0
0.75 0.375 0
0.875 0.375 0
0.875 0.25 0
1 0.25 0
0.875 0.375 0
1 0.375 0
0.875 0.375 0
1 0.375 0
0.875 0.5 0
1 0.5 0
0.75 0.375 0
0.875 0.375 0
0.75 0.5 0
0.875 0.5 0
0.5 0.25 0
0.625 0.25 0
0.5 0.375 0
0.625 0.375 0
0.625 0.25 0
0.75 0.25 0
0.625 0.375 0
0.75 0.375 0
0.625 0.375 0
0.75 0.375 0
0.625 0.5 0
0.75 0.5 0
0.5 0.375 0
0.625 0.375 0
0.5 0.5 0
0.625 0.5 0
0.5 0.5 0
0.625 0.5 0
0.5 0.625 0
0.625 0.625 0
0.625 0.5 0
0.75 0.5 0
0.625 0.625 0
0.75 0.625 0
0.625 0.625 0
0.75 0.625 0
0.625 0.75 0
0.75 0.75 0
0.5 0.625 0
0.625 0.625 0
0.5 0.75 0
0.625 0.75 0
0.75 0.5 0
0.875 0.5 0
0.75 0.625 0
0.875 0.625 0
0.875 0.5 0
1 0.5 0
0.875 0.625 0
1 0.625 0
0.875 0.625 0
1 0.625 0
0.875 0.75 0
1 0.75 0
0.75 0.625 0
0.875 0.625 0
0.75 0.75 0
0.875 0.75 0
0.75 0.75 0
0.875 0.75 0
0.75 0.875 0
0.875 0.875 0
0.875 0.75 0
1 0.75 0
0.875 0.875 0
1 0.875 0
0.875 0.875 0
1 0.875 0
0.875 1 0
1 1 0
0.75 0.875 0
0.875 0.875 0
0.75 1 0
0.875 1 0
0.5 0.75 0
0.625 0.75 0
0.5 0.875 0
0.625 0.875 0
0.625 0.75 0
0.75 0.75 0
0.625 0.875 0
0.75 0.875 0
0.625 0.875 0
0.75 0.875 0
0.625 1 0
0.75 1 0
0.5 0.875 0
0.625 0.875 0
0.5 1 0
0.625 1 0
0 0.5 0
0.125 0.5 0
0 0.625 0
0.125 0.625 0
0.125 0.5 0
0.25 0.5 0
0.125 0.625 0
0.25 0.625 0
0.125 0.625 0
0.25 0.625 0
0.125 0.75 0
0.25 0.75 0
0 0.625 0
0.125 0.625 0
0 0.75 0
0.125 0.75 0
0.25 0.5 0
0.375 0.5 0
0.25 0.625 0
0.375 0.625 0
0.375 0.5 0
0.5 0.5 0
0.375 0.625 0
0.5 0.625 0
0.375 0.625 0
0.5 0.625 0
0.375 0.75 0
0.5 0.75 0
0.25 0.625 0
0.375 0.625 0
0.25 0.75 0
0.375 0.75 0
0.25 0.75 0
0.375 0.75 0
0.25 0.875 0
0.375 0.875 0
0.375 0.75 0
0.5 0.75 0
0.375 0.875 0
0.5 0.875 0
0.375 0.875 0
0.5 0.875 0
0.375 1 0
0.5 1 0
0.25 0.875 0
0.375 0.875 0
0.25 1 0
0.375 1 0
0 0.75 0
0.125 0.75 0
0 0.875 0
0.125 0.875 0
0.125 0.75 0
0.25 0.75 0
0.125 0.875 0
0.25 0.875 0
0.125 0.875 0
0.25 0.875 0
0.125 1 0
0.25 1 0
0 0.875 0
0.125 0.875 0
0 1 0
0.125 1 0
1 0 0
1.125 0 0
1 0.125 0
1.125 0.125 0
1.125 0 0
1.25 0 0
1.125 0.125 0
1.25 0.125 0
1.125 0.125 0
1.25 0.125 0
1.125 0.25 0
1.25 0.25 0
1 0.125 0
1.125 0.125 0
1 0.25 0
1.125 0.25 0
1.25 0 0
1.375 0 0
1.25 0.125 0
1.375 0.125 0
1.375 0 0
1.5 0 0
1.375 0.125 0
1.5 0.125 0
1.375 0.125 0
1.5 0.125 0
1.375 0.25 0
1.5 0.25 0
1.25 0.125 0
1.375 0.125 0
1.25 0.25 0
1.375 0.25 0
1.25 0.25 0
1.375 0.25 0
1.25 0.375 0
1.375 0.375 0
1.375 0.25 0
1.5 0.25 0
1.375 0.375 0
1.5 0.375 0
1.375 0.375 0
1.5 0.375 0
1.375 0.5 0
1.5 0.5 0
1.25 0.375 0
1.375 0.375 0
1.25 0.5 0
1.375 0.5 0
1 0.25 0
1.125 0.25 0
1 0.375 0
1.125 0.375 0
1.125 0.25 0
1.25 0.25 0
1.125 0.375 0
1.25 0.375 0
1.125 0.375 0
1.25 0.375 0
1.125 0.5 0
1.25 0.5 0
1 0.375 0
1.125 0.375 0
1 0.5 0
1.125 0.5 0
1.5 0 0
1.625 0 0
1.5 0.125 0
1.625 0.125 0
1.625 0 0
1.75 0 0
1.625 0.125 0
1.75 0.125 0
1.625 0.125 0
1.75 0.125 0
1.625 0.25 0
1.75 0.25 0
1.5 0.125 0
1.625 0.125 0
1.5 0.25 0
1.625 0.25 0
1.75 0 0
1.875 0 0
1.75 0.125 0
1.875 0.125 0
1.875 0 0
2 0 0
1.875 0.125 0
2 0.125 0
1.875 0.125 0
2 0.125 0
1.875 0.25 0
2 0.25 0
1.75 0.125 0
1.875 0.125 0
1.75 0.25 0
1.875 0.25 0
1.75 0.25 0
1.875 0.25 0
1.75 0.375 0
1.875 0.375 0
1.875 0.25 0
2 0.25 0
1.875 0.375 0
2 0.375 0
1.875 0.375 0
2 0.375 0
1.875 0.5 0
2 0.5 0
1.75 0.375 0
1.875 0.375 0
1.75 0.5 0
1.875 0.5 0
1.5 0.25 0
1.625 0.25 0
1.5 0.375 0
1.625 0.375 0
1.625 0.25 0
1.75 0.25 0
1.625 0.375 0
1.75 0.375 0
1.625 0.375 0
1.75 0.375 0
1.625 0.5 0
1.75 0.5 0
1.5 0.375 0
1.625 0.375 0
1.5 0.5 0
1.625 0.5 0
1.5 0.5 0
1.625 0.5 0
1.5 0.625 0
1.625 0.625 0
1.625 0.5 0
1.75 0.5 0
1.625 0.625 0
1.75 0.625 0
1.625 0.625 0
1.75 0.625 0
1.625 0.75 0
1.75 0.75 0
1.5 0.625 0
1.625 0.625 0
1.5 0.75 0
1.625 0.75 0
1.75 0.5 0
1.875 0.5 0
1.75 0.625 0
1.875 0.625 0
1.875 0.5 0
2 0.5 0
1.875 0.625 0
2 0.625 0
1.875 0.625 0
2 0.625 0
1.875 0.75 0
2 0.75 0
1.75 0.625 0
1.875 0.625 0
1.75 0.75 0
1.875 0.75 0
1.75 0.75 0
1.875 0.75 0
1.75 0.875 0
1.875 0.875 0
1.875 0.75 0
2 0.75 0
1.875 0.875 0
2 0.875 0
1.875 0.875 0
2 0.875 0
1.875 1 0
2 1 0
1.75 0.875 0
1.875 0.875 0
1.75 1 0
1.875 1 0
1.5 0.75 0
1.625 0.75 0
1.5 0.875 0
1.625 0.875 0
1.625 0.75 0
1.75 0.75 0
1.625 0.875 0
1.75 0.875 0
1.625 0.875 0
1.75 0.875 0
1.625 1 0
1.75 1 0
1.5 0.875 0
1.625 0.875 0
1.5 1 0
1.625 1 0
1 0.5 0
1.125 0.5 0
1 0.625 0
1.125 0.625 0
1.125 0.5 0
1.25 0.5 0
1.125 0.625 0
1.25 0.625 0
1.125 0.625 0
1.25 0.625 0
1.125 0.75 0
1.25 0.75 0
1 0.625 0
1.125 0.625 0
1 0.75 0
1.125 0.75 0
1.25 0.5 0
1.375 0.5 0
1.25 0.625 0
1.375 0.625 0
1.375 0.5 0
1.5 0.5 0
1.375 0.625 0
1.5 0.625 0
1.375 0.625 0
1.5 0.625 0
1.375 0.75 0
1.5 0.75 0
1.25 0.625 0
1.375 0.625 0
1.25 0.75 0
1.375 0.75 0
1.25 0.75 0
1.375 0.75 0
1.25 0.875 0
1.375 0.875 0
1.375 0.75 0
1.5 0.75 0
1.375 0.875 0
1.5 0.875 0
1.375 0.875 0
1.5 0.875 0
1.375 1 0
1.5 1 0
1.25 0.875 0
1.375 0.875 0
1.25 1 0
1.375 1 0
1 0.75 0
1.125 0.75 0
1 0.875 0
1.125 0.875 0
1.125 0.75 0
1.25 0.75 0
1.125 0.875 0
1.25 0.875 0
1.125 0.875 0
1.25 0.875 0
1.125 1 0
1.25 1 0
1 0.875 0
1.125 0.875 0
1 1 0
1.125 1 0
2 0 0
2.125 0 0
2 0.125 0
2.125 0.125 0
2.125 0 0
2.25 0 0
2.125 0.125 0
2.25 0.125 0
2.125 0.125 0
2.25 0.125 0
2.125 0.25 0
2.25 0.25 0
2 0.125 0
2.125 0.125 0
2 0.25 0
2.125 0.25 0
2.25 0 0
2.375 0 0
2.25 0.125 0
2.375 0.125 0
2.375 0 0
2.5 0 0
2.375 0.125 0
2.5 0.125 0
2.375 0.125 0
2.5 0.125 0
2.375 0.25 0
2.5 0.25 0
2.25 0.125 0
2.375 0.125 0
2.25 0.25 0
2.375 0.25 0
2.25 0.25 0
2.375 0.25 0
2.25 0.375 0
2.375 0.375 0
2.375 0.25 0
2.5 0.25 0
2.375 0.375 0
2.5 0.375 0
2.375 0.375 0
2.5 0.375 0
2.375 0.5 0
2.5 0.5 0
2.25 0.375 0
2.375 0.375 0
2.25 0.5 0
2.375 0.5 0
2 0.25 0
2.125 0.25 0
2 0.375 0
2.125 0.375 0
2.125 0.25 0
2.25 0.25 0
2.125 0.375 0
2.25 0.375 0
2.125 0.375 0
2.25 0.375 0
2.125 0.5 0
2.25 0.5 0
2 0.375 0
2.125 0.375 0
2 0.5 0
2.125 0.5 0
2.5 0 0
2.625 0 0
2.5 0.125 0
2.625 0.125 0
2.625 0 0
2.75 0 0
2.625 0.125 0
2.75 0.125 0
2.625 0.125 0
2.75 0.125 0
2.625 0.25 0
2.75 0.25 0
2.5 0.125 0
2.625 0.125 0
2.5 0.25 0
2.625 0.25 0
2.75 0 0
2.875 0 0
2.75 0.125 0
2.875 0.125 0
2.875 0 0
3 0 0
2.875 0.125 0
3 0.125 0
2.875 0.125 0
3 0.125 0
2.875 0.25 0
3 0.25 0
2.75 0.125 0
2.875 0.125 0
2.75 0.25 0
2.875 0.25 0
2.75 0.25 0
2.875 0.25 0
2.75 0.375 0
2.875 0.375 0
2.875 0.25 0
3 0.25 0
2.875 0.375 0
3 0.375 0
2.875 0.375 0
3 0.375 0
2.875 0.5 0
3 0.5 0
2.75 0.375 0
2.875 0.375 0
2.75 0.5 0
2.875 0.5 0
2.5 0.25 0
2.625 0.25 0
2.5 0.375 0
2.625 0.375 0
2.625 0.25 0
2.75 0.25 0
2.625 0.375 0
2.75 0.375 0
2.625 0.375 0
2.75 0.375 0
2.625 0.5 0
2.75 0.5 0
2.5 0.375 0
2.625 0.375 0
2.5 0.5 0
2.625 0.5 0
2.5 0.5 0
2.625 0.5 0
2.5 0.625 0
2.625 0.625 0
2.625 0.5 0
2.75 0.5 0
2.625 0.625 0
2.75 0.625 0
2.625 0.625 0
2.75 0.625 0
2.625 0.75 0
2.75 0.75 0
2.5 0.625 0
2.625 0.625 0
2.5 0.75 0
2.625 0.75 0
2.75 0.5 0
2.875 0.5 0
2.75 0.625 0
2.875 0.625 0
2.875 0.5 0
3 0.5 0
2.875 0.625 0
3 0.625 0
2.875 0.625 0
3 0.625 0
2.875 0.75 0
3 0.75 0
2.75 0.625 0
2.875 0.625 0
2.75 0.75 0
2.875 0.75 0
2.75 0.75 0
2.875 0.75 0
2.75 0.875 0
2.875 0.875 0
2.875 0.75 0
3 0.75 0
2.875 0.875 0
3 0.875 0
2.875 0.875 0
3 0.875 0
2.875 1 0
3 1 0
2.75 0.875 0
2.875 0.875 0
2.75 1 0
2.875 1 0
2.5 0.75 0
2.625 0.75 0
2.5 0.875 0
2.625 0.875 0
2.625 0.75 0
2.75 0.75 0
2.625 0.875 0
2.75 0.875 0
2.625 0.875 0
2.75 0.875 0
2.625 1 0
2.75 1 0
2.5 0.875 0
2.625 0.875 0
2.5 1 0
2.625 1 0
2 0.5 0
2.125 0.5 0
2 0.625 0
2.125 0.625 0
2.125 0.5 0
2.25 0.5 0
2.125 0.625 0
2.25 0.625 0
2.125 0.625 0
2.25 0.625 0
2.125 0.75 0
2.25 0.75 0
2 0.625 0
2.125 0.625 0
2 0.75 0
2.125 0.75 0
2.25 0.5 0
2.375 0.5 0
2.25 0.625 0
2.375 0.625 0
2.375 0.5 0
2.5 0.5 0
2.375 0.625 0
2.5 0.625 0
2.375 0.625 0
2.5 0.625 0
2.375 0.75 0
2.5 0.75 0
2.25 0.625 0
2.375 0.625 0
2.25 0.75 0
2.375 0.75 0
2.25 0.75 0
2.375 0.75 0
2.25 0.875 0
2.375 0.875 0
2.375 0.75 0
2.5 0.75 0
2.375 0.875 0
2.5 0.875 0
2.375 0.875 0
2.5 0.875 0
2.375 1 0
2.5 1 0
2.25 0.875 0
2.375 0.875 0
2.25 1 0
2.375 1 0
2 0.75 0
2.125 0.75 0
2 0.875 0
2.125 0.875 0
2.125 0.75 0
2.25 0.75 0
2.125 0.875 0
2.25 0.875 0
2.125 0.875 0
2.25 0.875 0
2.125 1 0
2.25 1 0
2 0.875 0
2.125 0.875 0
2 1 0
2.125 1 0
3 0 0
3.125 0 0
3 0.125 0
3.125 0.125 0
3.125 0 0
3.25 0 0
3.125 0.125 0
3.25 0.125 0
3.125 0.125 0
3.25 0.125 0
3.125 0.25 0
3.25 0.25 0
3 0.125 0
3.125 0.125 0
3 0.25 0
3.125 0.25 0
3.25 0 0
3.375 0 0
3.25 0.125 0
3.375 0.125 0
3.375 0 0
3.5 0 0
3.375 0.125 0
3.5 0.125 0
3.375 0.125 0
3.5 0.125 0
3.375 0.25 0
3.5 0.25 0
3.25 0.125 0
3.375 0.125 0
3.25 0.25 0
3.375 0.25 0
3.25 0.25 0
3.375 0.25 0
3.25 0.375 0
3.375 0.375 0
3.375 0.25 0
3.5 0.25 0
3.375 0.375 0
3.5 0.375 0
3.375 0.375 0
3.5 0.375 0
3.375 0.5 0
3.5 0.5 0
3.25 0.375 0
3.375 0.375 0
3.25 0.5 0
[...]
<CellData Scalars="attribute">
<DataArray type="Int32" Name="attribute" format="ascii">
1
1
1
1
1
1
1
1
1
1
1
1
1
1
1
1
1
1
1
1
1
1
1
1
1
1
1
1
1
1
1
1
1
1
1
1
1
1
1
1
1
1
1
1
1
1
1
1
1
1
1
1
1
1
1
1
1
1
1
1
1
1
1
1
1
1
1
1
1
1
1
1
1
1
1
1
1
1
1
1
1
1
1
1
1
1
1
1
1
1
1
1
1
1
1
1
1
1
1
1
1
1
1
1
1
1
1
1
1
1
1
1
1
1
1
1
1
1
1
1
1
1
1
1
1
1
1
1
1
1
1
1
1
1
1
1
1
1
1
1
1
1
1
1
1
1
1
1
1
1
1
1
1
1
1
1
1
1
1
1
1
1
1
1
1
1
1
1
1
1
1
1
1
1
1
1
1
1
1
1
1
1
1
1
1
1
1
1
1
1
1
1
1
1
1
1
1
1
1
1
1
1
1
1
1
1
1
1
1
1
1
1
1
1
1
1
1
1
1
1
1
1
1
1
1
1
1
1
1
1
1
1
1
1
1
1
1
1
1
1
1
1
1
1
1
1
1
1
1
1
1
1
1
1
1
1
2
2
2
2
2
2
2
2
2
2
2
2
2
2
2
2
2
2
2
2
2
2
2
2
2
2
2
2
2
2
2
2
2
2
2
2
2
2
2
2
2
2
2
2
2
2
2
2
2
2
2
2
2
2
2
2
2
2
2
2
2
2
2
2
2
2
2
2
2
2
2
2
2
2
2
2
2
2
2
2
2
2
2
2
2
2
2
2
2
2
2
2
2
2
2
2
2
2
2
2
2
2
2
2
2
2
2
2
2
2
2
2
2
2
2
2
2
2
2
2
2
2
2
2
2
2
2
2
2
2
2
2
2
2
2
2
2
2
2
2
2
2
2
2
2
2
2
2
2
2
2
2
2
2
2
2
2
2
2
2
2
2
2
2
2
2
2
2
2
2
2
2
2
2
2
2
2
2
2
2
2
2
2
2
2
2
2
2
2
2
2
2
2
2
2
2
2
2
2
2
2
2
2
2
2
2
2
2
2
2
2
2
2
2
2
2
2
2
2
2
2
2
2
2
2
2
2
2
2
2
2
2
2
2
2
2
2
2
2
2
2
2
2
2
2
2
2
2
2
2
2
2
2
2
2
2
</DataArray>
</CellData>
<PointData >
<DataArray type="Float64" Name="Pressure" NumberOfComponents="1" format="ascii" >
-2.94132e-05
-5.09795e-09
-4.81308e-05
-8.4388e-09
-5.09795e-09
3.81751e-14
-8.4388e-09
6.61061e-14
-8.4388e-09
6.61061e-14
-5.66531e-09
4.48904e-14
-4.81308e-05
-8.4388e-09
-3.20873e-05
-5.66531e-09
3.81751e-14
-1.81726e-19
6.61061e-14
-3.24424e-19
-1.81726e-19
8.61407e-25
-3.24424e-19
1.59426e-24
-3.24424e-19
1.59426e-24
-2.25878e-19
1.14004e-24
6.61061e-14
-3.24424e-19
4.48904e-14
-2.25878e-19
4.48904e-14
-2.25878e-19
2.3004e-14
-1.15419e-19
-2.25878e-19
1.14004e-24
-1.15419e-19
5.83151e-25
-1.15419e-19
5.83151e-25
-3.81758e-21
1.8489e-26
2.3004e-14
-1.15419e-19
8.10081e-16
-3.81758e-21
-3.20873e-05
-5.66531e-09
-1.60437e-05
-2.8768e-09
-5.66531e-09
4.48904e-14
-2.8768e-09
2.3004e-14
-2.8768e-09
2.3004e-14
-6.37057e-11
8.10081e-16
-1.60437e-05
-2.8768e-09
-7.84043e-11
-6.37057e-11
8.61407e-25
-2.05961e-30
1.59426e-24
-3.95025e-30
-2.05961e-30
8.21237e-36
-3.95025e-30
1.58399e-35
-3.95025e-30
1.58399e-35
-2.92586e-30
1.19009e-35
1.59426e-24
-3.95025e-30
1.14004e-24
-2.92586e-30
8.21237e-36
-7.68255e-42
1.58399e-35
-1.63279e-41
-7.68255e-42
4.256e-47
-1.63279e-41
8.33244e-47
-1.63279e-41
8.33244e-47
-1.3195e-41
6.45212e-47
1.58399e-35
-1.63279e-41
1.19009e-35
-1.3195e-41
1.19009e-35
-1.3195e-41
6.1869e-36
-6.95675e-42
-1.3195e-41
6.45212e-47
-6.95675e-42
3.42633e-47
-6.95675e-42
3.42633e-47
-2.00393e-43
8.72296e-49
6.1869e-36
-6.95675e-42
1.774e-37
-2.00393e-43
1.14004e-24
-2.92586e-30
5.83151e-25
-1.50581e-30
-2.92586e-30
1.19009e-35
-1.50581e-30
6.1869e-36
-1.50581e-30
6.1869e-36
-4.5961e-32
1.774e-37
5.83151e-25
-1.50581e-30
1.8489e-26
-4.5961e-32
1.8489e-26
-4.5961e-32
-5.54043e-25
1.43417e-30
-4.5961e-32
1.774e-37
1.43417e-30
-5.91624e-36
1.43417e-30
-5.91624e-36
2.91538e-30
-1.18695e-35
-5.54043e-25
1.43417e-30
-1.13468e-24
2.91538e-30
1.774e-37
-2.00393e-43
-5.91624e-36
6.65314e-42
-2.00393e-43
8.72296e-49
6.65314e-42
-3.297e-47
6.65314e-42
-3.297e-47
1.31595e-41
-6.44167e-47
-5.91624e-36
6.65314e-42
-1.18695e-35
1.31595e-41
-1.18695e-35
1.31595e-41
-1.60926e-35
1.65765e-41
1.31595e-41
-6.44167e-47
1.65765e-41
-8.44902e-47
1.65765e-41
-8.44902e-47
7.8501e-42
-4.33837e-47
-1.60926e-35
1.65765e-41
-8.39715e-36
7.8501e-42
-1.13468e-24
2.91538e-30
-1.62266e-24
4.01745e-30
2.91538e-30
-1.18695e-35
4.01745e-30
-1.60926e-35
4.01745e-30
-1.60926e-35
2.10957e-30
-8.39715e-36
-1.62266e-24
4.01745e-30
-8.84044e-25
2.10957e-30
-7.84043e-11
-6.37057e-11
1.60436e-05
2.77399e-09
-6.37057e-11
8.10081e-16
2.77399e-09
-2.16995e-14
2.77399e-09
-2.16995e-14
5.63628e-09
-4.4532e-14
1.60436e-05
2.77399e-09
3.20872e-05
5.63628e-09
8.10081e-16
-3.81758e-21
-2.16995e-14
1.09333e-19
-3.81758e-21
1.8489e-26
1.09333e-19
-5.54043e-25
1.09333e-19
-5.54043e-25
2.24462e-19
-1.13468e-24
-2.16995e-14
1.09333e-19
-4.4532e-14
2.24462e-19
-4.4532e-14
2.24462e-19
-6.73279e-14
3.30456e-19
2.24462e-19
-1.13468e-24
3.30456e-19
-1.62266e-24
3.30456e-19
-1.62266e-24
1.86862e-19
-8.84044e-25
-6.73279e-14
3.30456e-19
-3.94263e-14
1.86862e-19
3.20872e-05
5.63628e-09
4.8131e-05
8.53374e-09
5.63628e-09
-4.4532e-14
8.53374e-09
-6.73279e-14
8.53374e-09
-6.73279e-14
5.19855e-09
-3.94263e-14
4.8131e-05
8.53374e-09
2.94133e-05
5.19855e-09
4.256e-47
5.83754e-54
8.33244e-47
1.88628e-54
5.83754e-54
1.34562e-58
1.88628e-54
2.61128e-58
1.88628e-54
2.61128e-58
-4.09999e-54
2.03797e-58
8.33244e-47
1.88628e-54
6.45212e-47
-4.09999e-54
1.34562e-58
9.84143e-65
2.61128e-58
1.66473e-64
9.84143e-65
2.40831e-70
1.66473e-64
4.58957e-70
1.66473e-64
4.58957e-70
1.14847e-64
3.56263e-70
2.61128e-58
1.66473e-64
2.03797e-58
1.14847e-64
2.03797e-58
1.14847e-64
1.09835e-58
5.98547e-65
1.14847e-64
3.56263e-70
5.98547e-65
1.93173e-70
5.98547e-65
1.93173e-70
1.00544e-66
3.67489e-72
1.09835e-58
5.98547e-65
2.43346e-60
1.00544e-66
6.45212e-47
-4.09999e-54
3.42633e-47
-2.75125e-54
-4.09999e-54
2.03797e-58
-2.75125e-54
1.09835e-58
-2.75125e-54
1.09835e-58
-1.51399e-55
2.43346e-60
3.42633e-47
-2.75125e-54
8.72296e-49
-1.51399e-55
2.40831e-70
1.78259e-76
4.58957e-70
3.19498e-76
1.78259e-76
1.35288e-82
3.19498e-76
2.54112e-82
3.19498e-76
2.54112e-82
2.34704e-76
1.95897e-82
4.58957e-70
3.19498e-76
3.56263e-70
2.34704e-76
1.35288e-82
-2.79431e-89
2.54112e-82
-5.10201e-89
-2.79431e-89
-1.93662e-94
-5.10201e-89
-3.60758e-94
-5.10201e-89
-3.60758e-94
-3.83252e-89
-2.7704e-94
2.54112e-82
-5.10201e-89
1.95897e-82
-3.83252e-89
1.95897e-82
-3.83252e-89
1.06365e-82
-2.06047e-89
-3.83252e-89
-2.7704e-94
-2.06047e-89
-1.50455e-94
-2.06047e-89
-1.50455e-94
-2.96337e-91
-2.10779e-96
1.06365e-82
-2.06047e-89
1.73299e-84
-2.96337e-91
3.56263e-70
2.34704e-76
1.93173e-70
1.24966e-76
2.34704e-76
1.95897e-82
1.24966e-76
1.06365e-82
1.24966e-76
1.06365e-82
2.00764e-78
1.73299e-84
1.93173e-70
1.24966e-76
3.67489e-72
2.00764e-78
3.67489e-72
2.00764e-78
-1.87883e-70
-1.22126e-76
2.00764e-78
1.73299e-84
-1.22126e-76
-1.03889e-82
-1.22126e-76
-1.03889e-82
-2.34781e-76
-1.95828e-82
-1.87883e-70
-1.22126e-76
-3.56038e-70
-2.34781e-76
1.73299e-84
-2.96337e-91
-1.03889e-82
2.01856e-89
-2.96337e-91
-2.10779e-96
2.01856e-89
1.47456e-94
2.01856e-89
1.47456e-94
3.83312e-89
2.76991e-94
-1.03889e-82
2.01856e-89
-1.95828e-82
3.83312e-89
-1.95828e-82
3.83312e-89
-2.56451e-82
5.14618e-89
3.83312e-89
2.76991e-94
5.14618e-89
3.63655e-94
5.14618e-89
3.63655e-94
2.82579e-89
1.95717e-94
-2.56451e-82
5.14618e-89
-1.36944e-82
2.82579e-89
-3.56038e-70
-2.34781e-76
-4.63805e-70
-3.22667e-76
-2.34781e-76
-1.95828e-82
-3.22667e-76
-2.56451e-82
-3.22667e-76
-2.56451e-82
-1.80545e-76
-1.36944e-82
-4.63805e-70
-3.22667e-76
-2.44252e-70
-1.80545e-76
8.72296e-49
-1.51399e-55
-3.297e-47
2.51459e-54
-1.51399e-55
2.43346e-60
2.51459e-54
-1.06293e-58
2.51459e-54
-1.06293e-58
4.02552e-54
-2.03586e-58
-3.297e-47
2.51459e-54
-6.44167e-47
4.02552e-54
2.43346e-60
1.00544e-66
-1.06293e-58
-5.84391e-65
1.00544e-66
3.67489e-72
-5.84391e-65
-1.87883e-70
-5.84391e-65
-1.87883e-70
-1.14954e-64
-3.56038e-70
-1.06293e-58
-5.84391e-65
-2.03586e-58
-1.14954e-64
-2.03586e-58
-1.14954e-64
-2.64303e-58
-1.68352e-64
-1.14954e-64
-3.56038e-70
-1.68352e-64
-4.63805e-70
-1.68352e-64
-4.63805e-70
-9.98251e-65
-2.44252e-70
-2.64303e-58
-1.68352e-64
-1.36793e-58
-9.98251e-65
-6.44167e-47
4.02552e-54
-8.44902e-47
-1.89452e-54
4.02552e-54
-2.03586e-58
-1.89452e-54
-2.64303e-58
-1.89452e-54
-2.64303e-58
-5.89411e-54
-1.36793e-58
-8.44902e-47
-1.89452e-54
-4.33837e-47
-5.89411e-54
-1.93662e-94
-2.43442e-100
-3.60758e-94
-4.47769e-100
-2.43442e-100
-1.60372e-106
-4.47769e-100
-2.97521e-106
-4.47769e-100
-2.97521e-106
-3.39925e-100
-2.28203e-106
-3.60758e-94
-4.47769e-100
-2.7704e-94
-3.39925e-100
-1.60372e-106
2.18357e-113
-2.97521e-106
4.02848e-113
2.18357e-113
1.60305e-118
4.02848e-113
2.96806e-118
4.02848e-113
2.96806e-118
3.07531e-113
2.27685e-118
-2.97521e-106
4.02848e-113
-2.28203e-106
3.07531e-113
-2.28203e-106
3.07531e-113
-1.23959e-106
1.66688e-113
3.07531e-113
2.27685e-118
1.66688e-113
1.23716e-118
1.66688e-113
1.23716e-118
1.85368e-115
1.29991e-120
-1.23959e-106
1.66688e-113
-1.50094e-108
1.85368e-115
-2.7704e-94
-3.39925e-100
-1.50455e-94
-1.83712e-100
-3.39925e-100
-2.28203e-106
-1.83712e-100
-1.23959e-106
-1.83712e-100
-1.23959e-106
-2.32981e-102
-1.50094e-108
-1.50455e-94
-1.83712e-100
-2.10779e-96
-2.32981e-102
1.60305e-118
1.58106e-124
2.96806e-118
2.92019e-124
1.58106e-124
4.51014e-131
2.92019e-124
8.34209e-131
2.92019e-124
8.34209e-131
2.2362e-124
6.40331e-131
2.96806e-118
2.92019e-124
2.27685e-118
2.2362e-124
4.51014e-131
-6.67156e-137
8.34209e-131
-1.23262e-136
-6.67156e-137
-8.94018e-143
-1.23262e-136
-1.6526e-142
-1.23262e-136
-1.6526e-142
-9.45662e-137
-1.26941e-142
8.34209e-131
-1.23262e-136
6.40331e-131
-9.45662e-137
6.40331e-131
-9.45662e-137
3.48036e-131
-5.13812e-137
-9.45662e-137
-1.26941e-142
-5.13812e-137
-6.90103e-143
-5.13812e-137
-6.90103e-143
-4.36901e-139
-5.49977e-145
3.48036e-131
-5.13812e-137
3.18203e-133
-4.36901e-139
2.27685e-118
2.2362e-124
1.23716e-118
1.21398e-124
2.2362e-124
6.40331e-131
1.21398e-124
3.48036e-131
1.21398e-124
3.48036e-131
1.18105e-126
3.18203e-133
1.23716e-118
1.21398e-124
1.29991e-120
1.18105e-126
1.29991e-120
1.18105e-126
-1.21874e-118
-1.19728e-124
1.18105e-126
3.18203e-133
-1.19728e-124
-3.43531e-131
-1.19728e-124
-3.43531e-131
-2.23623e-124
-6.40314e-131
-1.21874e-118
-1.19728e-124
-2.27674e-118
-2.23623e-124
3.18203e-133
-4.36901e-139
-3.43531e-131
5.07633e-137
-4.36901e-139
-5.49977e-145
5.07633e-137
6.82318e-143
5.07633e-137
6.82318e-143
9.4566e-137
1.26938e-142
-3.43531e-131
5.07633e-137
-6.40314e-131
9.4566e-137
-6.40314e-131
9.4566e-137
-8.38666e-131
1.23878e-136
9.4566e-137
1.26938e-142
1.23878e-136
1.6603e-142
1.23878e-136
1.6603e-142
6.71516e-137
8.99474e-143
-8.38666e-131
1.23878e-136
-4.54172e-131
6.71516e-137
-2.27674e-118
-2.23623e-124
-2.98623e-118
-2.93693e-124
-2.23623e-124
-6.40314e-131
-2.93693e-124
-8.38666e-131
-2.93693e-124
-8.38666e-131
-1.59291e-124
-4.54172e-131
-2.98623e-118
-2.93693e-124
-1.61593e-118
-1.59291e-124
-2.10779e-96
-2.32981e-102
1.47456e-94
1.80419e-100
-2.32981e-102
-1.50094e-108
1.80419e-100
1.21829e-106
1.80419e-100
1.21829e-106
3.39952e-100
2.28183e-106
1.47456e-94
1.80419e-100
2.76991e-94
3.39952e-100
-1.50094e-108
1.85368e-115
1.21829e-106
-1.64067e-113
1.85368e-115
1.29991e-120
-1.64067e-113
-1.21874e-118
-1.64067e-113
-1.21874e-118
-3.07543e-113
-2.27674e-118
1.21829e-106
-1.64067e-113
2.28183e-106
-3.07543e-113
2.28183e-106
-3.07543e-113
2.99607e-106
-4.05497e-113
-3.07543e-113
-2.27674e-118
-4.05497e-113
-2.98623e-118
-4.05497e-113
-2.98623e-118
-2.20234e-113
-1.61593e-118
2.99607e-106
-4.05497e-113
1.61852e-106
-2.20234e-113
2.76991e-94
3.39952e-100
3.63655e-94
4.51149e-100
3.39952e-100
2.28183e-106
4.51149e-100
2.99607e-106
4.51149e-100
2.99607e-106
2.45839e-100
1.61852e-106
3.63655e-94
4.51149e-100
1.95717e-94
2.45839e-100
-8.94018e-143
-3.40757e-149
-1.6526e-142
-6.29545e-149
-3.40757e-149
2.48548e-155
-6.29545e-149
4.59245e-155
-6.29545e-149
4.59245e-155
-4.83553e-149
3.52981e-155
-1.6526e-142
-6.29545e-149
-1.26941e-142
-4.83553e-149
2.48548e-155
3.69533e-161
4.59245e-155
6.82575e-161
3.69533e-161
1.28118e-167
6.82575e-161
2.36642e-167
6.82575e-161
2.36642e-167
5.24699e-161
1.8198e-167
4.59245e-155
6.82575e-161
3.52981e-155
5.24699e-161
3.52981e-155
5.24699e-161
1.91917e-155
2.85264e-161
5.24699e-161
1.8198e-167
2.85264e-161
9.89467e-168
2.85264e-161
9.89467e-168
1.85232e-163
6.01086e-170
1.91917e-155
2.85264e-161
1.33479e-157
1.85232e-163
-1.26941e-142
-4.83553e-149
-6.90103e-143
-2.62845e-149
-4.83553e-149
3.52981e-155
-2.62845e-149
1.91917e-155
-2.62845e-149
1.91917e-155
-1.953e-151
1.33479e-157
-6.90103e-143
-2.62845e-149
-5.49977e-145
-1.953e-151
1.28118e-167
-9.65545e-174
2.36642e-167
-1.78304e-173
-9.65545e-174
-1.17961e-179
-1.78304e-173
-2.17815e-179
-1.78304e-173
-2.17815e-179
-1.37139e-173
-1.6757e-179
2.36642e-167
-1.78304e-173
1.8198e-167
-1.37139e-173
-1.17961e-179
-2.56858e-186
-2.17815e-179
-4.74209e-186
-2.56858e-186
3.47342e-192
-4.74209e-186
6.41186e-192
-4.74209e-186
6.41186e-192
-3.64873e-186
4.93438e-192
-2.17815e-179
-4.74209e-186
-1.6757e-179
-3.64873e-186
-1.6757e-179
-3.64873e-186
-9.11094e-180
-1.98376e-186
-3.64873e-186
4.93438e-192
-1.98376e-186
2.6827e-192
-1.98376e-186
2.6827e-192
-9.84664e-189
1.24558e-194
-9.11094e-180
-1.98376e-186
-4.83739e-182
-9.84664e-189
1.8198e-167
-1.37139e-173
9.89467e-168
-7.45624e-174
-1.37139e-173
-1.6757e-179
-7.45624e-174
-9.11094e-180
-7.45624e-174
-9.11094e-180
-4.23226e-176
-4.83739e-182
9.89467e-168
-7.45624e-174
6.01086e-170
-4.23226e-176
6.01086e-170
-4.23226e-176
-9.80955e-168
7.3963e-174
-4.23226e-176
-4.83739e-182
7.3963e-174
9.04241e-180
7.3963e-174
9.04241e-180
1.37135e-173
1.67565e-179
-9.80955e-168
7.3963e-174
-1.81975e-167
1.37135e-173
-4.83739e-182
-9.84664e-189
9.04241e-180
1.96981e-186
-9.84664e-189
1.24558e-194
1.96981e-186
-2.66504e-192
1.96981e-186
-2.66504e-192
3.64862e-186
-4.93422e-192
9.04241e-180
1.96981e-186
1.67565e-179
3.64862e-186
1.67565e-179
3.64862e-186
2.18488e-179
4.75577e-186
3.64862e-186
-4.93422e-192
4.75577e-186
-6.42913e-192
4.75577e-186
-6.42913e-192
2.57828e-186
-3.48566e-192
2.18488e-179
4.75577e-186
1.18438e-179
2.57828e-186
-1.81975e-167
1.37135e-173
-2.37481e-167
1.78895e-173
1.37135e-173
1.67565e-179
1.78895e-173
2.18488e-179
1.78895e-173
2.18488e-179
9.69725e-174
1.18438e-179
-2.37481e-167
1.78895e-173
-1.28712e-167
9.69725e-174
-5.49977e-145
-1.953e-151
6.82318e-143
2.60081e-149
-1.953e-151
1.33479e-157
2.60081e-149
-1.90028e-155
2.60081e-149
-1.90028e-155
4.83548e-149
-3.52973e-155
6.82318e-143
2.60081e-149
1.26938e-142
4.83548e-149
1.33479e-157
1.85232e-163
-1.90028e-155
-2.82642e-161
1.85232e-163
6.01086e-170
-2.82642e-161
-9.80955e-168
-2.82642e-161
-9.80955e-168
-5.24689e-161
-1.81975e-167
-1.90028e-155
-2.82642e-161
-3.52973e-155
-5.24689e-161
-3.52973e-155
-5.24689e-161
-4.61112e-155
-6.85167e-161
-5.24689e-161
-1.81975e-167
-6.85167e-161
-2.37481e-167
-6.85167e-161
-2.37481e-167
-3.71368e-161
-1.28712e-167
-4.61112e-155
-6.85167e-161
-2.4987e-155
-3.71368e-161
1.26938e-142
4.83548e-149
1.6603e-142
6.32287e-149
4.83548e-149
-3.52973e-155
6.32287e-149
-4.61112e-155
6.32287e-149
-4.61112e-155
3.42699e-149
-2.4987e-155
1.6603e-142
6.32287e-149
8.99474e-143
3.42699e-149
3.47342e-192
2.76257e-198
6.41186e-192
5.09893e-198
2.76257e-198
3.3282e-206
5.09893e-198
6.14217e-206
5.09893e-198
6.14217e-206
3.92447e-198
4.72798e-206
6.41186e-192
5.09893e-198
4.93438e-192
3.92447e-198
3.3282e-206
-9.51642e-211
6.14217e-206
-1.75605e-210
-9.51642e-211
-4.11253e-217
-1.75605e-210
-7.58797e-217
-1.75605e-210
-7.58797e-217
-1.35188e-210
-5.8421e-217
6.14217e-206
-1.75605e-210
4.72798e-206
-1.35188e-210
4.72798e-206
-1.35188e-210
2.57026e-206
-7.34883e-211
-1.35188e-210
-5.8421e-217
-7.34883e-211
-3.17562e-217
-7.34883e-211
-3.17562e-217
-2.79277e-213
-1.12926e-219
2.57026e-206
-7.34883e-211
1.04435e-208
-2.79277e-213
4.93438e-192
3.92447e-198
2.6827e-192
2.13353e-198
3.92447e-198
4.72798e-206
2.13353e-198
2.57026e-206
2.13353e-198
2.57026e-206
9.26424e-201
1.04435e-208
2.6827e-192
2.13353e-198
1.24558e-194
9.26424e-201
-4.11253e-217
1.36481e-223
-7.58797e-217
2.51792e-223
1.36481e-223
1.73009e-229
2.51792e-223
3.1915e-229
2.51792e-223
3.1915e-229
1.93874e-223
2.45757e-229
-7.58797e-217
2.51792e-223
-5.8421e-217
1.93874e-223
1.73009e-229
2.16938e-236
3.1915e-229
4.00149e-236
2.16938e-236
-3.91547e-242
4.00149e-236
-7.22156e-242
4.00149e-236
-7.22156e-242
3.0815e-236
-5.56158e-242
3.1915e-229
4.00149e-236
2.45757e-229
3.0815e-236
2.45757e-229
3.0815e-236
1.33574e-229
1.67477e-236
3.0815e-236
-5.56158e-242
1.67477e-236
-3.02253e-242
1.67477e-236
-3.02253e-242
4.88238e-239
-8.24921e-245
1.33574e-229
1.67477e-236
4.1601e-232
4.88238e-239
-5.8421e-217
1.93874e-223
-3.17562e-217
1.0538e-223
1.93874e-223
2.45757e-229
1.0538e-223
1.33574e-229
1.0538e-223
1.33574e-229
3.50661e-226
4.1601e-232
-3.17562e-217
1.0538e-223
-1.12926e-219
3.50661e-226
-1.12926e-219
3.50661e-226
3.15958e-217
-1.04882e-223
3.50661e-226
4.1601e-232
-1.04882e-223
-1.32983e-229
-1.04882e-223
-1.32983e-229
-1.93866e-223
-2.45747e-229
3.15958e-217
-1.04882e-223
5.84187e-217
-1.93866e-223
4.1601e-232
4.88238e-239
-1.32983e-229
-1.66783e-236
4.88238e-239
-8.24921e-245
-1.66783e-236
3.01079e-242
-1.66783e-236
3.01079e-242
-3.08136e-236
5.56133e-242
-1.32983e-229
-1.66783e-236
-2.45747e-229
-3.08136e-236
-2.45747e-229
-3.08136e-236
-3.19719e-229
-4.00815e-236
-3.08136e-236
5.56133e-242
-4.00815e-236
7.23278e-242
-4.00815e-236
7.23278e-242
-2.1741e-236
3.92341e-242
-3.19719e-229
-4.00815e-236
-1.73411e-229
-2.1741e-236
5.84187e-217
-1.93866e-223
7.6035e-217
-2.52273e-223
-1.93866e-223
-2.45747e-229
-2.52273e-223
-3.19719e-229
-2.52273e-223
-3.19719e-229
-1.36821e-223
-1.73411e-229
7.6035e-217
-2.52273e-223
4.12352e-217
-1.36821e-223
1.24558e-194
9.26424e-201
-2.66504e-192
-2.1204e-198
9.26424e-201
1.04435e-208
-2.1204e-198
-2.55544e-206
-2.1204e-198
-2.55544e-206
-3.92434e-198
-4.72781e-206
-2.66504e-192
-2.1204e-198
-4.93422e-192
-3.92434e-198
1.04435e-208
-2.79277e-213
-2.55544e-206
7.30919e-211
-2.79277e-213
-1.12926e-219
7.30919e-211
3.15958e-217
7.30919e-211
3.15958e-217
1.35183e-210
5.84187e-217
-2.55544e-206
7.30919e-211
-4.72781e-206
1.35183e-210
-4.72781e-206
1.35183e-210
-6.1566e-206
1.7599e-210
1.35183e-210
5.84187e-217
1.7599e-210
7.6035e-217
1.7599e-210
7.6035e-217
9.54368e-211
4.12352e-217
-6.1566e-206
1.7599e-210
-3.33841e-206
9.54368e-211
-4.93422e-192
-3.92434e-198
-6.42913e-192
-5.11176e-198
-3.92434e-198
-4.72781e-206
-5.11176e-198
-6.1566e-206
-5.11176e-198
-6.1566e-206
-2.77165e-198
-3.33841e-206
-6.42913e-192
-5.11176e-198
-3.48566e-192
-2.77165e-198
-3.91547e-242
-1.7457e-248
-7.22156e-242
-3.21943e-248
-1.7457e-248
4.39353e-255
-3.21943e-248
8.10194e-255
-3.21943e-248
8.10194e-255
-2.47953e-248
6.24023e-255
-7.22156e-242
-3.21943e-248
-5.56158e-242
-2.47953e-248
4.39353e-255
5.13746e-261
8.10194e-255
9.47307e-261
5.13746e-261
3.39367e-268
9.47307e-261
6.2572e-268
9.47307e-261
6.2572e-268
7.29662e-261
4.81979e-268
8.10194e-255
9.47307e-261
6.24023e-255
7.29662e-261
6.24023e-255
7.29662e-261
3.39103e-255
3.96491e-261
7.29662e-261
4.81979e-268
3.96491e-261
2.61892e-268
3.96491e-261
2.61892e-268
8.88726e-264
5.49935e-271
3.39103e-255
3.96491e-261
8.11514e-258
8.88726e-264
-5.56158e-242
-2.47953e-248
-3.02253e-242
-1.34747e-248
-2.47953e-248
6.24023e-255
-1.34747e-248
3.39103e-255
-1.34747e-248
3.39103e-255
-3.4434e-251
8.11514e-258
-3.02253e-242
-1.34747e-248
-8.24921e-245
-3.4434e-251
3.39367e-268
-9.64909e-274
6.2572e-268
-1.77897e-273
-9.64909e-274
-2.7444e-280
-1.77897e-273
-5.05944e-280
-1.77897e-273
-5.05944e-280
-1.37036e-273
-3.89746e-280
6.2572e-268
-1.77897e-273
4.81979e-268
-1.37036e-273
-2.7444e-280
1.19834e-286
-5.05944e-280
2.20907e-286
1.19834e-286
6.94243e-293
2.20907e-286
1.27973e-292
2.20907e-286
1.27973e-292
1.70178e-286
9.85876e-293
-5.05944e-280
2.20907e-286
-3.89746e-280
1.70178e-286
-3.89746e-280
1.70178e-286
-2.11758e-280
9.24583e-287
1.70178e-286
9.85876e-293
9.24583e-287
5.35612e-293
9.24583e-287
5.35612e-293
1.59799e-289
8.67928e-296
-2.11758e-280
9.24583e-287
-3.90452e-283
1.59799e-289
4.81979e-268
-1.37036e-273
2.61892e-268
-7.44577e-274
-1.37036e-273
-3.89746e-280
-7.44577e-274
-2.11758e-280
-7.44577e-274
-2.11758e-280
-1.46494e-276
-3.90452e-283
2.61892e-268
-7.44577e-274
5.49935e-271
-1.46494e-276
5.49935e-271
-1.46494e-276
-2.61107e-268
7.42484e-274
-1.46494e-276
-3.90452e-283
7.42484e-274
2.112e-280
7.42484e-274
2.112e-280
1.37029e-273
3.89726e-280
-2.61107e-268
7.42484e-274
-4.81955e-268
1.37029e-273
-3.90452e-283
1.59799e-289
2.112e-280
-9.22297e-287
1.59799e-289
8.67928e-296
-9.22297e-287
-5.34369e-293
-9.22297e-287
-5.34369e-293
-1.70169e-286
-9.85824e-293
2.112e-280
-9.22297e-287
3.89726e-280
-1.70169e-286
3.89726e-280
-1.70169e-286