<VTKFile type="UnstructuredGrid" version="0.1" byte_order="LittleEndian">
<UnstructuredGrid>
<Piece NumberOfPoints="2048" NumberOfCells="512">
<Points>
<DataArray type="Float64" NumberOfComponents="3" format="ascii">
0 0 0
0.125 0 0
0 0.125 0
0.125 0.125 0
0.125 0 0
0.25 0 0
0.125 0.125 0
0.25 0.125 0
0.125 0.125 0
0.25 0.125 0
0.125 0.25 0
0.25 0.25 0
0 0.125 0
0.125 0.125 0
0 0.25 0
0.125 0.25 0
0.25 0 0
0.375 0 0
0.25 0.125 0
0.375 0.125 0
0.375 0 0
0.5 0 0
0.375 0.125 0
0.5 0.125 0
0.375 0.125 0
0.5 0.125 0
0.375 0.25 0
0.5 0.25 0
0.25 0.125 0
0.375 0.125 0
0.25 0.25 0
0.375 0.25 0
0.25 0.25 0
0.375 0.25 0
0.25 0.375 0
0.375 0.375 0
0.375 0.25 0
0.5 0.25 0
0.375 0.375 0
0.5 0.375 0
0.375 0.375 0
0.5 0.375 0
0.375 0.5 0
0.5 0.5 0
0.25 0.375 0
0.375 0.375 0
0.25 0.5 0
0.375 0.5 0
0 0.25 0
0.125 0.25 0
0 0.375 0
0.125 0.375 0
0.125 0.25 0
0.25 0.25 0
0.125 0.375 0
0.25 0.375 0
0.125 0.375 0
0.25 0.375 0
0.125 0.5 0
0.25 0.5 0
0 0.375 0
0.125 0.375 0
0 0.5 0
0.125 0.5 0
0.5 0 0
0.625 0 0
0.5 0.125 0
0.625 0.125 0
0.625 0 0
0.75 0 0
0.625 0.125 0
0.75 0.125 0
0.625 0.125 0
0.75 0.125 0
0.625 0.25 0
0.75 0.25 0
0.5 0.125 0
0.625 0.125 0
0.5 0.25 0
0.625 0.25 0
0.75 0 0
0.875 0 0
0.75 0.125 0
0.875 0.125 0
0.875 0 0
1 0 0
0.875 0.125 0
1 0.125 0
0.875 0.125 0
1 0.125 0
0.875 0.25 0
1 0.25 0
0.75 0.125 0
0.875 0.125 0
0.75 0.25 0
0.875 0.25 0
0.75 0.25 0
0.875 0.25 0
0.75 0.375 0
0.875 0.375 0
0.875 0.25 0
1 0.25 0
0.875 0.375 0
1 0.375 0
0.875 0.375 0
1 0.375 0
0.875 0.5 0
1 0.5 0
0.75 0.375 0
0.875 0.375 0
0.75 0.5 0
0.875 0.5 0
0.5 0.25 0
0.625 0.25 0
0.5 0.375 0
0.625 0.375 0
0.625 0.25 0
0.75 0.25 0
0.625 0.375 0
0.75 0.375 0
0.625 0.375 0
0.75 0.375 0
0.625 0.5 0
0.75 0.5 0
0.5 0.375 0
0.625 0.375 0
0.5 0.5 0
0.625 0.5 0
0.5 0.5 0
0.625 0.5 0
0.5 0.625 0
0.625 0.625 0
0.625 0.5 0
0.75 0.5 0
0.625 0.625 0
0.75 0.625 0
0.625 0.625 0
0.75 0.625 0
0.625 0.75 0
0.75 0.75 0
0.5 0.625 0
0.625 0.625 0
0.5 0.75 0
0.625 0.75 0
0.75 0.5 0
0.875 0.5 0
0.75 0.625 0
0.875 0.625 0
0.875 0.5 0
1 0.5 0
0.875 0.625 0
1 0.625 0
0.875 0.625 0
1 0.625 0
0.875 0.75 0
1 0.75 0
0.75 0.625 0
0.875 0.625 0
0.75 0.75 0
0.875 0.75 0
0.75 0.75 0
0.875 0.75 0
0.75 0.875 0
0.875 0.875 0
0.875 0.75 0
1 0.75 0
0.875 0.875 0
1 0.875 0
0.875 0.875 0
1 0.875 0
0.875 1 0
1 1 0
0.75 0.875 0
0.875 0.875 0
0.75 1 0
0.875 1 0
0.5 0.75 0
0.625 0.75 0
0.5 0.875 0
0.625 0.875 0
0.625 0.75 0
0.75 0.75 0
0.625 0.875 0
0.75 0.875 0
0.625 0.875 0
0.75 0.875 0
0.625 1 0
0.75 1 0
0.5 0.875 0
0.625 0.875 0
0.5 1 0
0.625 1 0
0 0.5 0
0.125 0.5 0
0 0.625 0
0.125 0.625 0
0.125 0.5 0
0.25 0.5 0
0.125 0.625 0
0.25 0.625 0
0.125 0.625 0
0.25 0.625 0
0.125 0.75 0
0.25 0.75 0
0 0.625 0
0.125 0.625 0
0 0.75 0
0.125 0.75 0
0.25 0.5 0
0.375 0.5 0
0.25 0.625 0
0.375 0.625 0
0.375 0.5 0
0.5 0.5 0
0.375 0.625 0
0.5 0.625 0
0.375 0.625 0
0.5 0.625 0
0.375 0.75 0
0.5 0.75 0
0.25 0.625 0
0.375 0.625 0
0.25 0.75 0
0.375 0.75 0
0.25 0.75 0
0.375 0.75 0
0.25 0.875 0
0.375 0.875 0
0.375 0.75 0
0.5 0.75 0
0.375 0.875 0
0.5 0.875 0
0.375 0.875 0
0.5 0.875 0
0.375 1 0
0.5 1 0
0.25 0.875 0
0.375 0.875 0
0.25 1 0
0.375 1 0
0 0.75 0
0.125 0.75 0
0 0.875 0
0.125 0.875 0
0.125 0.75 0
0.25 0.75 0
0.125 0.875 0
0.25 0.875 0
0.125 0.875 0
0.25 0.875 0
0.125 1 0
0.25 1 0
0 0.875 0
0.125 0.875 0
0 1 0
0.125 1 0
1 0 0
1.125 0 0
1 0.125 0
1.125 0.125 0
1.125 0 0
1.25 0 0
1.125 0.125 0
1.25 0.125 0
1.125 0.125 0
1.25 0.125 0
1.125 0.25 0
1.25 0.25 0
1 0.125 0
1.125 0.125 0
1 0.25 0
1.125 0.25 0
1.25 0 0
1.375 0 0
1.25 0.125 0
1.375 0.125 0
1.375 0 0
1.5 0 0
1.375 0.125 0
1.5 0.125 0
1.375 0.125 0
1.5 0.125 0
1.375 0.25 0
1.5 0.25 0
1.25 0.125 0
1.375 0.125 0
1.25 0.25 0
1.375 0.25 0
1.25 0.25 0
1.375 0.25 0
1.25 0.375 0
1.375 0.375 0
1.375 0.25 0
1.5 0.25 0
1.375 0.375 0
1.5 0.375 0
1.375 0.375 0
1.5 0.375 0
1.375 0.5 0
1.5 0.5 0
1.25 0.375 0
1.375 0.375 0
1.25 0.5 0
1.375 0.5 0
1 0.25 0
1.125 0.25 0
1 0.375 0
1.125 0.375 0
1.125 0.25 0
1.25 0.25 0
1.125 0.375 0
1.25 0.375 0
1.125 0.375 0
1.25 0.375 0
1.125 0.5 0
1.25 0.5 0
1 0.375 0
1.125 0.375 0
1 0.5 0
1.125 0.5 0
1.5 0 0
1.625 0 0
1.5 0.125 0
1.625 0.125 0
1.625 0 0
1.75 0 0
1.625 0.125 0
1.75 0.125 0
1.625 0.125 0
1.75 0.125 0
1.625 0.25 0
1.75 0.25 0
1.5 0.125 0
1.625 0.125 0
1.5 0.25 0
1.625 0.25 0
1.75 0 0
1.875 0 0
1.75 0.125 0
1.875 0.125 0
1.875 0 0
2 0 0
1.875 0.125 0
2 0.125 0
1.875 0.125 0
2 0.125 0
1.875 0.25 0
2 0.25 0
1.75 0.125 0
1.875 0.125 0
1.75 0.25 0
1.875 0.25 0
1.75 0.25 0
1.875 0.25 0
1.75 0.375 0
1.875 0.375 0
1.875 0.25 0
2 0.25 0
1.875 0.375 0
2 0.375 0
1.875 0.375 0
2 0.375 0
1.875 0.5 0
2 0.5 0
1.75 0.375 0
1.875 0.375 0
1.75 0.5 0
1.875 0.5 0
1.5 0.25 0
1.625 0.25 0
1.5 0.375 0
1.625 0.375 0
1.625 0.25 0
1.75 0.25 0
1.625 0.375 0
1.75 0.375 0
1.625 0.375 0
1.75 0.375 0
1.625 0.5 0
1.75 0.5 0
1.5 0.375 0
1.625 0.375 0
1.5 0.5 0
1.625 0.5 0
1.5 0.5 0
1.625 0.5 0
1.5 0.625 0
1.625 0.625 0
1.625 0.5 0
1.75 0.5 0
1.625 0.625 0
1.75 0.625 0
1.625 0.625 0
1.75 0.625 0
1.625 0.75 0
1.75 0.75 0
1.5 0.625 0
1.625 0.625 0
1.5 0.75 0
1.625 0.75 0
1.75 0.5 0
1.875 0.5 0
1.75 0.625 0
1.875 0.625 0
1.875 0.5 0
2 0.5 0
1.875 0.625 0
2 0.625 0
1.875 0.625 0
2 0.625 0
1.875 0.75 0
2 0.75 0
1.75 0.625 0
1.875 0.625 0
1.75 0.75 0
1.875 0.75 0
1.75 0.75 0
1.875 0.75 0
1.75 0.875 0
1.875 0.875 0
1.875 0.75 0
2 0.75 0
1.875 0.875 0
2 0.875 0
1.875 0.875 0
2 0.875 0
1.875 1 0
2 1 0
1.75 0.875 0
1.875 0.875 0
1.75 1 0
1.875 1 0
1.5 0.75 0
1.625 0.75 0
1.5 0.875 0
1.625 0.875 0
1.625 0.75 0
1.75 0.75 0
1.625 0.875 0
1.75 0.875 0
1.625 0.875 0
1.75 0.875 0
1.625 1 0
1.75 1 0
1.5 0.875 0
1.625 0.875 0
1.5 1 0
1.625 1 0
1 0.5 0
1.125 0.5 0
1 0.625 0
1.125 0.625 0
1.125 0.5 0
1.25 0.5 0
1.125 0.625 0
1.25 0.625 0
1.125 0.625 0
1.25 0.625 0
1.125 0.75 0
1.25 0.75 0
1 0.625 0
1.125 0.625 0
1 0.75 0
1.125 0.75 0
1.25 0.5 0
1.375 0.5 0
1.25 0.625 0
1.375 0.625 0
1.375 0.5 0
1.5 0.5 0
1.375 0.625 0
1.5 0.625 0
1.375 0.625 0
1.5 0.625 0
1.375 0.75 0
1.5 0.75 0
1.25 0.625 0
1.375 0.625 0
1.25 0.75 0
1.375 0.75 0
1.25 0.75 0
1.375 0.75 0
1.25 0.875 0
1.375 0.875 0
1.375 0.75 0
1.5 0.75 0
1.375 0.875 0
1.5 0.875 0
1.375 0.875 0
1.5 0.875 0
1.375 1 0
1.5 1 0
1.25 0.875 0
1.375 0.875 0
1.25 1 0
1.375 1 0
1 0.75 0
1.125 0.75 0
1 0.875 0
1.125 0.875 0
1.125 0.75 0
1.25 0.75 0
1.125 0.875 0
1.25 0.875 0
1.125 0.875 0
1.25 0.875 0
1.125 1 0
1.25 1 0
1 0.875 0
1.125 0.875 0
1 1 0
1.125 1 0
2 0 0
2.125 0 0
2 0.125 0
2.125 0.125 0
2.125 0 0
2.25 0 0
2.125 0.125 0
2.25 0.125 0
2.125 0.125 0
2.25 0.125 0
2.125 0.25 0
2.25 0.25 0
2 0.125 0
2.125 0.125 0
2 0.25 0
2.125 0.25 0
2.25 0 0
2.375 0 0
2.25 0.125 0
2.375 0.125 0
2.375 0 0
2.5 0 0
2.375 0.125 0
2.5 0.125 0
2.375 0.125 0
2.5 0.125 0
2.375 0.25 0
2.5 0.25 0
2.25 0.125 0
2.375 0.125 0
2.25 0.25 0
2.375 0.25 0
2.25 0.25 0
2.375 0.25 0
2.25 0.375 0
2.375 0.375 0
2.375 0.25 0
2.5 0.25 0
2.375 0.375 0
2.5 0.375 0
2.375 0.375 0
2.5 0.375 0
2.375 0.5 0
2.5 0.5 0
2.25 0.375 0
2.375 0.375 0
2.25 0.5 0
2.375 0.5 0
2 0.25 0
2.125 0.25 0
2 0.375 0
2.125 0.375 0
2.125 0.25 0
2.25 0.25 0
2.125 0.375 0
2.25 0.375 0
2.125 0.375 0
2.25 0.375 0
2.125 0.5 0
2.25 0.5 0
2 0.375 0
2.125 0.375 0
2 0.5 0
2.125 0.5 0
2.5 0 0
2.625 0 0
2.5 0.125 0
2.625 0.125 0
2.625 0 0
2.75 0 0
2.625 0.125 0
2.75 0.125 0
2.625 0.125 0
2.75 0.125 0
2.625 0.25 0
2.75 0.25 0
2.5 0.125 0
2.625 0.125 0
2.5 0.25 0
2.625 0.25 0
2.75 0 0
2.875 0 0
2.75 0.125 0
2.875 0.125 0
2.875 0 0
3 0 0
2.875 0.125 0
3 0.125 0
2.875 0.125 0
3 0.125 0
2.875 0.25 0
3 0.25 0
2.75 0.125 0
2.875 0.125 0
2.75 0.25 0
2.875 0.25 0
2.75 0.25 0
2.875 0.25 0
2.75 0.375 0
2.875 0.375 0
2.875 0.25 0
3 0.25 0
2.875 0.375 0
3 0.375 0
2.875 0.375 0
3 0.375 0
2.875 0.5 0
3 0.5 0
2.75 0.375 0
2.875 0.375 0
2.75 0.5 0
2.875 0.5 0
2.5 0.25 0
2.625 0.25 0
2.5 0.375 0
2.625 0.375 0
2.625 0.25 0
2.75 0.25 0
2.625 0.375 0
2.75 0.375 0
2.625 0.375 0
2.75 0.375 0
2.625 0.5 0
2.75 0.5 0
2.5 0.375 0
2.625 0.375 0
2.5 0.5 0
2.625 0.5 0
2.5 0.5 0
2.625 0.5 0
2.5 0.625 0
2.625 0.625 0
2.625 0.5 0
2.75 0.5 0
2.625 0.625 0
2.75 0.625 0
2.625 0.625 0
2.75 0.625 0
2.625 0.75 0
2.75 0.75 0
2.5 0.625 0
2.625 0.625 0
2.5 0.75 0
2.625 0.75 0
2.75 0.5 0
2.875 0.5 0
2.75 0.625 0
2.875 0.625 0
2.875 0.5 0
3 0.5 0
2.875 0.625 0
3 0.625 0
2.875 0.625 0
3 0.625 0
2.875 0.75 0
3 0.75 0
2.75 0.625 0
2.875 0.625 0
2.75 0.75 0
2.875 0.75 0
2.75 0.75 0
2.875 0.75 0
2.75 0.875 0
2.875 0.875 0
2.875 0.75 0
3 0.75 0
2.875 0.875 0
3 0.875 0
2.875 0.875 0
3 0.875 0
2.875 1 0
3 1 0
2.75 0.875 0
2.875 0.875 0
2.75 1 0
2.875 1 0
2.5 0.75 0
2.625 0.75 0
2.5 0.875 0
2.625 0.875 0
2.625 0.75 0
2.75 0.75 0
2.625 0.875 0
2.75 0.875 0
2.625 0.875 0
2.75 0.875 0
2.625 1 0
2.75 1 0
2.5 0.875 0
2.625 0.875 0
2.5 1 0
2.625 1 0
2 0.5 0
2.125 0.5 0
2 0.625 0
2.125 0.625 0
2.125 0.5 0
2.25 0.5 0
2.125 0.625 0
2.25 0.625 0
2.125 0.625 0
2.25 0.625 0
2.125 0.75 0
2.25 0.75 0
2 0.625 0
2.125 0.625 0
2 0.75 0
2.125 0.75 0
2.25 0.5 0
2.375 0.5 0
2.25 0.625 0
2.375 0.625 0
2.375 0.5 0
2.5 0.5 0
2.375 0.625 0
2.5 0.625 0
2.375 0.625 0
2.5 0.625 0
2.375 0.75 0
2.5 0.75 0
2.25 0.625 0
2.375 0.625 0
2.25 0.75 0
2.375 0.75 0
2.25 0.75 0
2.375 0.75 0
2.25 0.875 0
2.375 0.875 0
2.375 0.75 0
2.5 0.75 0
2.375 0.875 0
2.5 0.875 0
2.375 0.875 0
2.5 0.875 0
2.375 1 0
2.5 1 0
2.25 0.875 0
2.375 0.875 0
2.25 1 0
2.375 1 0
2 0.75 0
2.125 0.75 0
2 0.875 0
2.125 0.875 0
2.125 0.75 0
2.25 0.75 0
2.125 0.875 0
2.25 0.875 0
2.125 0.875 0
2.25 0.875 0
2.125 1 0
2.25 1 0
2 0.875 0
2.125 0.875 0
2 1 0
2.125 1 0
3 0 0
3.125 0 0
3 0.125 0
3.125 0.125 0
3.125 0 0
3.25 0 0
3.125 0.125 0
3.25 0.125 0
3.125 0.125 0
3.25 0.125 0
3.125 0.25 0
3.25 0.25 0
3 0.125 0
3.125 0.125 0
3 0.25 0
3.125 0.25 0
3.25 0 0
3.375 0 0
3.25 0.125 0
3.375 0.125 0
3.375 0 0
3.5 0 0
3.375 0.125 0
3.5 0.125 0
3.375 0.125 0
3.5 0.125 0
3.375 0.25 0
3.5 0.25 0
3.25 0.125 0
3.375 0.125 0
3.25 0.25 0
3.375 0.25 0
3.25 0.25 0
3.375 0.25 0
3.25 0.375 0
3.375 0.375 0
3.375 0.25 0
3.5 0.25 0
3.375 0.375 0
3.5 0.375 0
3.375 0.375 0
3.5 0.375 0
3.375 0.5 0
3.5 0.5 0
3.25 0.375 0
3.375 0.375 0
3.25 0.5 0
[...]
<CellData Scalars="attribute">
<DataArray type="Int32" Name="attribute" format="ascii">
1
1
1
1
1
1
1
1
1
1
1
1
1
1
1
1
1
1
1
1
1
1
1
1
1
1
1
1
1
1
1
1
1
1
1
1
1
1
1
1
1
1
1
1
1
1
1
1
1
1
1
1
1
1
1
1
1
1
1
1
1
1
1
1
1
1
1
1
1
1
1
1
1
1
1
1
1
1
1
1
1
1
1
1
1
1
1
1
1
1
1
1
1
1
1
1
1
1
1
1
1
1
1
1
1
1
1
1
1
1
1
1
1
1
1
1
1
1
1
1
1
1
1
1
1
1
1
1
1
1
1
1
1
1
1
1
1
1
1
1
1
1
1
1
1
1
1
1
1
1
1
1
1
1
1
1
1
1
1
1
1
1
1
1
1
1
1
1
1
1
1
1
1
1
1
1
1
1
1
1
1
1
1
1
1
1
1
1
1
1
1
1
1
1
1
1
1
1
1
1
1
1
1
1
1
1
1
1
1
1
1
1
1
1
1
1
1
1
1
1
1
1
1
1
1
1
1
1
1
1
1
1
1
1
1
1
1
1
1
1
1
1
1
1
1
1
1
1
1
1
1
1
1
1
1
1
2
2
2
2
2
2
2
2
2
2
2
2
2
2
2
2
2
2
2
2
2
2
2
2
2
2
2
2
2
2
2
2
2
2
2
2
2
2
2
2
2
2
2
2
2
2
2
2
2
2
2
2
2
2
2
2
2
2
2
2
2
2
2
2
2
2
2
2
2
2
2
2
2
2
2
2
2
2
2
2
2
2
2
2
2
2
2
2
2
2
2
2
2
2
2
2
2
2
2
2
2
2
2
2
2
2
2
2
2
2
2
2
2
2
2
2
2
2
2
2
2
2
2
2
2
2
2
2
2
2
2
2
2
2
2
2
2
2
2
2
2
2
2
2
2
2
2
2
2
2
2
2
2
2
2
2
2
2
2
2
2
2
2
2
2
2
2
2
2
2
2
2
2
2
2
2
2
2
2
2
2
2
2
2
2
2
2
2
2
2
2
2
2
2
2
2
2
2
2
2
2
2
2
2
2
2
2
2
2
2
2
2
2
2
2
2
2
2
2
2
2
2
2
2
2
2
2
2
2
2
2
2
2
2
2
2
2
2
2
2
2
2
2
2
2
2
2
2
2
2
2
2
2
2
2
2
</DataArray>
</CellData>
<PointData >
<DataArray type="Float64" Name="Pressure" NumberOfComponents="1" format="ascii" >
-0.000359757
-4.57956e-07
-0.000588708
-7.58087e-07
-4.57956e-07
2.37619e-11
-7.58087e-07
4.11498e-11
-7.58087e-07
4.11498e-11
-5.08939e-07
2.7944e-11
-0.000588708
-7.58087e-07
-0.000392477
-5.08939e-07
2.37619e-11
-7.85055e-16
4.11498e-11
-1.40169e-15
-7.85055e-16
2.63739e-20
-1.40169e-15
4.88213e-20
-1.40169e-15
4.88213e-20
-9.75989e-16
3.49153e-20
4.11498e-11
-1.40169e-15
2.7944e-11
-9.75989e-16
2.7944e-11
-9.75989e-16
1.43203e-11
-4.9872e-16
-9.75989e-16
3.49153e-20
-4.9872e-16
1.78601e-20
-4.9872e-16
1.78601e-20
-1.65094e-17
5.66582e-22
1.43203e-11
-4.9872e-16
5.049e-13
-1.65094e-17
-0.000392477
-5.08939e-07
-0.000196243
-2.58436e-07
-5.08939e-07
2.7944e-11
-2.58436e-07
1.43203e-11
-2.58436e-07
1.43203e-11
-5.72392e-09
5.049e-13
-0.000196243
-2.58436e-07
-7.04314e-09
-5.72392e-09
2.63739e-20
-4.60161e-25
4.88213e-20
-8.82842e-25
-4.60161e-25
1.39429e-29
-8.82842e-25
2.68976e-29
-8.82842e-25
2.68976e-29
-6.54036e-25
2.02114e-29
4.88213e-20
-8.82842e-25
3.49153e-20
-6.54036e-25
1.39429e-29
-1.03045e-34
2.68976e-29
-2.19209e-34
-1.03045e-34
4.7992e-39
-2.19209e-34
9.39659e-39
-2.19209e-34
9.39659e-39
-1.77254e-34
7.27655e-39
2.68976e-29
-2.19209e-34
2.02114e-29
-1.77254e-34
2.02114e-29
-1.77254e-34
1.05076e-29
-9.3463e-35
-1.77254e-34
7.27655e-39
-9.3463e-35
3.86427e-39
-9.3463e-35
3.86427e-39
-2.6946e-36
9.83887e-41
1.05076e-29
-9.3463e-35
3.01383e-31
-2.6946e-36
3.49153e-20
-6.54036e-25
1.78601e-20
-3.36615e-25
-6.54036e-25
2.02114e-29
-3.36615e-25
1.05076e-29
-3.36615e-25
1.05076e-29
-1.0281e-26
3.01383e-31
1.78601e-20
-3.36615e-25
5.66582e-22
-1.0281e-26
5.66582e-22
-1.0281e-26
-1.69682e-20
3.20591e-25
-1.0281e-26
3.01383e-31
3.20591e-25
-1.00478e-29
3.20591e-25
-1.00478e-29
6.51692e-25
-2.01579e-29
-1.69682e-20
3.20591e-25
-3.47512e-20
6.51692e-25
3.01383e-31
-2.6946e-36
-1.00478e-29
8.93804e-35
-2.6946e-36
9.83887e-41
8.93804e-35
-3.7184e-39
8.93804e-35
-3.7184e-39
1.76776e-34
-7.26477e-39
-1.00478e-29
8.93804e-35
-2.01579e-29
1.76776e-34
-2.01579e-29
1.76776e-34
-2.73268e-29
2.22549e-34
1.76776e-34
-7.26477e-39
2.22549e-34
-9.52806e-39
2.22549e-34
-9.52806e-39
1.05295e-34
-4.8921e-39
-2.73268e-29
2.22549e-34
-1.42567e-29
1.05295e-34
-3.47512e-20
6.51692e-25
-4.96916e-20
8.97871e-25
6.51692e-25
-2.01579e-29
8.97871e-25
-2.73268e-29
8.97871e-25
-2.73268e-29
4.71331e-25
-1.42567e-29
-4.96916e-20
8.97871e-25
-2.70674e-20
4.71331e-25
-7.04314e-09
-5.72392e-09
0.000196232
2.49199e-07
-5.72392e-09
5.049e-13
2.49199e-07
-1.35072e-11
2.49199e-07
-1.35072e-11
5.06331e-07
-2.77206e-11
0.000196232
2.49199e-07
0.000392473
5.06331e-07
5.049e-13
-1.65094e-17
-1.35072e-11
4.724e-16
-1.65094e-17
5.66582e-22
4.724e-16
-1.69682e-20
4.724e-16
-1.69682e-20
9.69868e-16
-3.47512e-20
-1.35072e-11
4.724e-16
-2.77206e-11
9.69868e-16
-2.77206e-11
9.69868e-16
-4.19113e-11
1.42777e-15
9.69868e-16
-3.47512e-20
1.42777e-15
-4.96916e-20
1.42777e-15
-4.96916e-20
8.07261e-16
-2.70674e-20
-4.19113e-11
1.42777e-15
-2.45418e-11
8.07261e-16
0.000392473
5.06331e-07
0.000588718
7.66618e-07
5.06331e-07
-2.77206e-11
7.66618e-07
-4.19113e-11
7.66618e-07
-4.19113e-11
4.66994e-07
-2.45418e-11
0.000588718
7.66618e-07
0.000359768
4.66994e-07
4.7992e-39
6.05593e-45
9.39659e-39
2.25784e-45
6.05593e-45
1.2952e-48
2.25784e-45
2.51333e-48
2.25784e-45
2.51333e-48
-3.84486e-45
1.96147e-48
9.39659e-39
2.25784e-45
7.27655e-39
-3.84486e-45
1.2952e-48
1.00214e-53
2.51333e-48
1.69611e-53
1.00214e-53
2.92526e-58
1.69611e-53
5.57433e-58
1.69611e-53
5.57433e-58
1.17075e-53
4.32677e-58
2.51333e-48
1.69611e-53
1.96147e-48
1.17075e-53
1.96147e-48
1.17075e-53
1.05713e-48
6.10254e-54
1.17075e-53
4.32677e-58
6.10254e-54
2.34602e-58
6.10254e-54
2.34602e-58
1.02613e-55
4.46241e-60
1.05713e-48
6.10254e-54
2.34199e-50
1.02613e-55
7.27655e-39
-3.84486e-45
3.86427e-39
-2.61945e-45
-3.84486e-45
1.96147e-48
-2.61945e-45
1.05713e-48
-2.61945e-45
1.05713e-48
-1.4887e-46
2.34199e-50
3.86427e-39
-2.61945e-45
9.83887e-41
-1.4887e-46
2.92526e-58
3.17196e-63
5.57433e-58
5.68605e-63
3.17196e-63
5.43006e-68
5.68605e-63
1.01988e-67
5.68605e-63
1.01988e-67
4.17759e-63
7.86184e-68
5.57433e-58
5.68605e-63
4.32677e-58
4.17759e-63
5.43006e-68
6.17879e-73
1.01988e-67
1.12819e-72
6.17879e-73
8.06473e-78
1.12819e-72
1.50228e-77
1.12819e-72
1.50228e-77
8.475e-73
1.15363e-77
1.01988e-67
1.12819e-72
7.86184e-68
8.475e-73
7.86184e-68
8.475e-73
4.26863e-68
4.55645e-73
8.475e-73
1.15363e-77
4.55645e-73
6.26502e-78
4.55645e-73
6.26502e-78
6.55327e-75
8.77602e-80
4.26863e-68
4.55645e-73
6.95374e-70
6.55327e-75
4.32677e-58
4.17759e-63
2.34602e-58
2.22443e-63
4.17759e-63
7.86184e-68
2.22443e-63
4.26863e-68
2.22443e-63
4.26863e-68
3.57442e-65
6.95374e-70
2.34602e-58
2.22443e-63
4.46241e-60
3.57442e-65
4.46241e-60
3.57442e-65
-2.28179e-58
-2.17385e-63
3.57442e-65
6.95374e-70
-2.17385e-63
-4.16925e-68
-2.17385e-63
-4.16925e-68
-4.17895e-63
-7.8591e-68
-2.28179e-58
-2.17385e-63
-4.32404e-58
-4.17895e-63
6.95374e-70
6.55327e-75
-4.16925e-68
-4.46377e-73
6.55327e-75
8.77602e-80
-4.46377e-73
-6.14015e-78
-4.46377e-73
-6.14015e-78
-8.47632e-73
-1.15342e-77
-4.16925e-68
-4.46377e-73
-7.8591e-68
-8.47632e-73
-7.8591e-68
-8.47632e-73
-1.02926e-67
-1.13796e-72
-8.47632e-73
-1.15342e-77
-1.13796e-72
-1.51434e-77
-1.13796e-72
-1.51434e-77
-6.24841e-73
-8.1503e-78
-1.02926e-67
-1.13796e-72
-5.49654e-68
-6.24841e-73
-4.32404e-58
-4.17895e-63
-5.63321e-58
-5.74245e-63
-4.17895e-63
-7.8591e-68
-5.74245e-63
-1.02926e-67
-5.74245e-63
-1.02926e-67
-3.21265e-63
-5.49654e-68
-5.63321e-58
-5.74245e-63
-2.96681e-58
-3.21265e-63
9.83887e-41
-1.4887e-46
-3.7184e-39
2.38646e-45
-1.4887e-46
2.34199e-50
2.38646e-45
-1.02304e-48
2.38646e-45
-1.02304e-48
3.77035e-45
-1.95944e-48
-3.7184e-39
2.38646e-45
-7.26477e-39
3.77035e-45
2.34199e-50
1.02613e-55
-1.02304e-48
-5.95803e-54
1.02613e-55
4.46241e-60
-5.95803e-54
-2.28179e-58
-5.95803e-54
-2.28179e-58
-1.17183e-53
-4.32404e-58
-1.02304e-48
-5.95803e-54
-1.95944e-48
-1.17183e-53
-1.95944e-48
-1.17183e-53
-2.54389e-48
-1.71525e-53
-1.17183e-53
-4.32404e-58
-1.71525e-53
-5.63321e-58
-1.71525e-53
-5.63321e-58
-1.01651e-53
-2.96681e-58
-2.54389e-48
-1.71525e-53
-1.31667e-48
-1.01651e-53
-7.26477e-39
3.77035e-45
-9.52806e-39
-2.27071e-45
3.77035e-45
-1.95944e-48
-2.27071e-45
-2.54389e-48
-2.27071e-45
-2.54389e-48
-6.11607e-45
-1.31667e-48
-9.52806e-39
-2.27071e-45
-4.8921e-39
-6.11607e-45
8.06473e-78
8.68283e-83
1.50228e-77
1.5971e-82
8.68283e-83
9.51384e-88
1.5971e-82
1.76498e-87
1.5971e-82
1.76498e-87
1.21247e-82
1.35374e-87
1.50228e-77
1.5971e-82
1.15363e-77
1.21247e-82
9.51384e-88
9.36033e-93
1.76498e-87
1.7269e-92
9.36033e-93
8.97432e-98
1.7269e-92
1.6616e-97
1.7269e-92
1.6616e-97
1.31831e-92
1.27463e-97
1.76498e-87
1.7269e-92
1.35374e-87
1.31831e-92
1.35374e-87
1.31831e-92
7.35341e-88
7.14549e-93
1.31831e-92
1.27463e-97
7.14549e-93
6.92587e-98
7.14549e-93
6.92587e-98
7.94616e-95
7.27672e-100
7.35341e-88
7.14549e-93
8.903e-90
7.94616e-95
1.15363e-77
1.21247e-82
6.26502e-78
6.55288e-83
1.21247e-82
1.35374e-87
6.55288e-83
7.35341e-88
6.55288e-83
7.35341e-88
8.31038e-85
8.903e-90
6.26502e-78
6.55288e-83
8.77602e-80
8.31038e-85
8.97432e-98
8.00032e-103
1.6616e-97
1.47766e-102
8.00032e-103
6.85022e-108
1.47766e-102
1.26704e-107
1.47766e-102
1.26704e-107
1.13156e-102
9.72563e-108
1.6616e-97
1.47766e-102
1.27463e-97
1.13156e-102
6.85022e-108
5.53846e-113
1.26704e-107
1.02328e-112
5.53846e-113
4.28508e-118
1.02328e-112
7.92102e-118
1.02328e-112
7.92102e-118
7.85056e-113
6.08436e-118
1.26704e-107
1.02328e-112
9.72563e-108
7.85056e-113
9.72563e-108
7.85056e-113
5.28611e-108
4.2655e-113
7.85056e-113
6.08436e-118
4.2655e-113
3.3077e-118
4.2655e-113
3.3077e-118
3.6269e-115
2.63595e-120
5.28611e-108
4.2655e-113
4.83269e-110
3.6269e-115
1.27463e-97
1.13156e-102
6.92587e-98
6.14298e-103
1.13156e-102
9.72563e-108
6.14298e-103
5.28611e-108
6.14298e-103
5.28611e-108
5.97618e-105
4.83269e-110
6.92587e-98
6.14298e-103
7.27672e-100
5.97618e-105
7.27672e-100
5.97618e-105
-6.82277e-98
-6.05848e-103
5.97618e-105
4.83269e-110
-6.05848e-103
-5.21769e-108
-6.05848e-103
-5.21769e-108
-1.13157e-102
-9.72537e-108
-6.82277e-98
-6.05848e-103
-1.27457e-97
-1.13157e-102
4.83269e-110
3.6269e-115
-5.21769e-108
-4.2142e-113
3.6269e-115
2.63595e-120
-4.2142e-113
-3.27039e-118
-4.2142e-113
-3.27039e-118
-7.85055e-113
-6.08423e-118
-5.21769e-108
-4.2142e-113
-9.72537e-108
-7.85055e-113
-9.72537e-108
-7.85055e-113
-1.27381e-107
-1.02839e-112
-7.85055e-113
-6.08423e-118
-1.02839e-112
-7.95793e-118
-1.02839e-112
-7.95793e-118
-5.57466e-113
-4.31123e-118
-1.27381e-107
-1.02839e-112
-6.89818e-108
-5.57466e-113
-1.27457e-97
-1.13157e-102
-1.67177e-97
-1.48613e-102
-1.13157e-102
-9.72537e-108
-1.48613e-102
-1.27381e-107
-1.48613e-102
-1.27381e-107
-8.06029e-103
-6.89818e-108
-1.67177e-97
-1.48613e-102
-9.04642e-98
-8.06029e-103
8.77602e-80
8.31038e-85
-6.14015e-78
-6.43539e-83
8.31038e-85
8.903e-90
-6.43539e-83
-7.22708e-88
-6.43539e-83
-7.22708e-88
-1.21257e-82
-1.35362e-87
-6.14015e-78
-6.43539e-83
-1.15342e-77
-1.21257e-82
8.903e-90
7.94616e-95
-7.22708e-88
-7.03315e-93
7.94616e-95
7.27672e-100
-7.03315e-93
-6.82277e-98
-7.03315e-93
-6.82277e-98
-1.31836e-92
-1.27457e-97
-7.22708e-88
-7.03315e-93
-1.35362e-87
-1.31836e-92
-1.35362e-87
-1.31836e-92
-1.77735e-87
-1.73826e-92
-1.31836e-92
-1.27457e-97
-1.73826e-92
-1.67177e-97
-1.73826e-92
-1.67177e-97
-9.44079e-93
-9.04642e-98
-1.77735e-87
-1.73826e-92
-9.60162e-88
-9.44079e-93
-1.15342e-77
-1.21257e-82
-1.51434e-77
-1.60916e-82
-1.21257e-82
-1.35362e-87
-1.60916e-82
-1.77735e-87
-1.60916e-82
-1.77735e-87
-8.76834e-83
-9.60162e-88
-1.51434e-77
-1.60916e-82
-8.1503e-78
-8.76834e-83
4.28508e-118
3.15447e-123
7.92102e-118
5.82786e-123
3.15447e-123
2.22251e-128
5.82786e-123
4.10656e-128
5.82786e-123
4.10656e-128
4.47639e-123
3.15635e-128
7.92102e-118
5.82786e-123
6.08436e-118
4.47639e-123
2.22251e-128
1.49643e-133
4.10656e-128
2.76411e-133
1.49643e-133
9.65662e-139
2.76411e-133
1.78364e-138
2.76411e-133
1.78364e-138
2.12479e-133
1.37164e-138
4.10656e-128
2.76411e-133
3.15635e-128
2.12479e-133
3.15635e-128
2.12479e-133
1.71612e-128
1.15519e-133
2.12479e-133
1.37164e-138
1.15519e-133
7.45791e-139
1.15519e-133
7.45791e-139
7.50077e-136
4.53036e-141
1.71612e-128
1.15519e-133
1.19352e-130
7.50077e-136
6.08436e-118
4.47639e-123
3.3077e-118
2.43323e-123
4.47639e-123
3.15635e-128
2.43323e-123
1.71612e-128
2.43323e-123
1.71612e-128
1.80788e-125
1.19352e-130
3.3077e-118
2.43323e-123
2.63595e-120
1.80788e-125
9.65662e-139
5.97249e-144
1.78364e-138
1.10292e-143
5.97249e-144
3.54625e-149
1.10292e-143
6.54814e-149
1.10292e-143
6.54814e-149
8.48291e-144
5.03765e-149
1.78364e-138
1.10292e-143
1.37164e-138
8.48291e-144
3.54625e-149
2.02251e-154
6.54814e-149
3.73393e-154
2.02251e-154
1.10917e-159
3.73393e-154
2.0475e-159
3.73393e-154
2.0475e-159
2.87303e-154
1.5757e-159
6.54814e-149
3.73393e-154
5.03765e-149
2.87303e-154
5.03765e-149
2.87303e-154
2.73902e-149
1.56202e-154
2.87303e-154
1.5757e-159
1.56202e-154
8.5667e-160
1.56202e-154
8.5667e-160
7.75295e-157
3.97739e-162
2.73902e-149
1.56202e-154
1.45421e-151
7.75295e-157
1.37164e-138
8.48291e-144
7.45791e-139
4.61216e-144
8.48291e-144
5.03765e-149
4.61216e-144
2.73902e-149
4.61216e-144
2.73902e-149
2.61784e-146
1.45421e-151
7.45791e-139
4.61216e-144
4.53036e-141
2.61784e-146
4.53036e-141
2.61784e-146
-7.39375e-139
-4.57508e-144
2.61784e-146
1.45421e-151
-4.57508e-144
-2.71842e-149
-4.57508e-144
-2.71842e-149
-8.4827e-144
-5.0375e-149
-7.39375e-139
-4.57508e-144
-1.3716e-138
-8.4827e-144
1.45421e-151
7.75295e-157
-2.71842e-149
-1.55104e-154
7.75295e-157
3.97739e-162
-1.55104e-154
-8.51032e-160
-1.55104e-154
-8.51032e-160
-2.87294e-154
-1.57565e-159
-2.71842e-149
-1.55104e-154
-5.0375e-149
-2.87294e-154
-5.0375e-149
-2.87294e-154
-6.56838e-149
-3.74471e-154
-2.87294e-154
-1.57565e-159
-3.74471e-154
-2.05302e-159
-3.74471e-154
-2.05302e-159
-2.03014e-154
-1.11308e-159
-6.56838e-149
-3.74471e-154
-3.56058e-149
-2.03014e-154
-1.3716e-138
-8.4827e-144
-1.78996e-138
-1.10658e-143
-8.4827e-144
-5.0375e-149
-1.10658e-143
-6.56838e-149
-1.10658e-143
-6.56838e-149
-5.99835e-144
-3.56058e-149
-1.78996e-138
-1.10658e-143
-9.70139e-139
-5.99835e-144
2.63595e-120
1.80788e-125
-3.27039e-118
-2.40765e-123
1.80788e-125
1.19352e-130
-2.40765e-123
-1.69922e-128
-2.40765e-123
-1.69922e-128
-4.47634e-123
-3.15628e-128
-3.27039e-118
-2.40765e-123
-6.08423e-118
-4.47634e-123
1.19352e-130
7.50077e-136
-1.69922e-128
-1.14457e-133
7.50077e-136
4.53036e-141
-1.14457e-133
-7.39375e-139
-1.14457e-133
-7.39375e-139
-2.12475e-133
-1.3716e-138
-1.69922e-128
-1.14457e-133
-3.15628e-128
-2.12475e-133
-3.15628e-128
-2.12475e-133
-4.12325e-128
-2.7746e-133
-2.12475e-133
-1.3716e-138
-2.7746e-133
-1.78996e-138
-2.7746e-133
-1.78996e-138
-1.50386e-133
-9.70139e-139
-4.12325e-128
-2.7746e-133
-2.23433e-128
-1.50386e-133
-6.08423e-118
-4.47634e-123
-7.95793e-118
-5.85325e-123
-4.47634e-123
-3.15628e-128
-5.85325e-123
-4.12325e-128
-5.85325e-123
-4.12325e-128
-3.17244e-123
-2.23433e-128
-7.95793e-118
-5.85325e-123
-4.31123e-118
-3.17244e-123
1.10917e-159
5.85285e-165
2.0475e-159
1.08027e-164
5.85285e-165
2.97412e-170
1.08027e-164
5.48876e-170
1.08027e-164
5.48876e-170
8.31451e-165
4.22506e-170
2.0475e-159
1.08027e-164
1.5757e-159
8.31451e-165
2.97412e-170
1.45625e-175
5.48876e-170
2.68719e-175
1.45625e-175
6.8752e-181
2.68719e-175
1.26853e-180
2.68719e-175
1.26853e-180
2.06872e-175
9.76667e-181
5.48876e-170
2.68719e-175
4.22506e-170
2.06872e-175
4.22506e-170
2.06872e-175
2.29686e-170
1.12456e-175
2.06872e-175
9.76667e-181
1.12456e-175
5.30892e-181
1.12456e-175
5.30892e-181
4.27349e-178
1.8878e-183
2.29686e-170
1.12456e-175
9.33025e-173
4.27349e-178
1.5757e-159
8.31451e-165
8.5667e-160
4.52018e-165
8.31451e-165
4.22506e-170
4.52018e-165
2.29686e-170
4.52018e-165
2.29686e-170
1.96268e-167
9.33025e-173
8.5667e-160
4.52018e-165
3.97739e-162
1.96268e-167
6.8752e-181
3.13146e-186
1.26853e-180
5.7772e-186
3.13146e-186
1.37675e-191
5.7772e-186
2.5397e-191
5.7772e-186
2.5397e-191
4.44833e-186
1.95567e-191
1.26853e-180
5.7772e-186
9.76667e-181
4.44833e-186
1.37675e-191
5.84539e-197
2.5397e-191
1.0782e-196
5.84539e-197
2.39783e-202
1.0782e-196
4.42247e-202
1.0782e-196
4.42247e-202
8.30311e-197
3.4059e-202
2.5397e-191
1.0782e-196
1.95567e-191
8.30311e-197
1.95567e-191
8.30311e-197
1.06294e-191
4.51268e-197
8.30311e-197
3.4059e-202
4.51268e-197
1.85099e-202
4.51268e-197
1.85099e-202
1.31551e-199
5.05165e-205
1.06294e-191
4.51268e-197
3.31038e-194
1.31551e-199
9.76667e-181
4.44833e-186
5.30892e-181
2.41787e-186
4.44833e-186
1.95567e-191
2.41787e-186
1.06294e-191
2.41787e-186
1.06294e-191
8.04548e-189
3.31038e-194
5.30892e-181
2.41787e-186
1.8878e-183
8.04548e-189
1.8878e-183
8.04548e-189
-5.28211e-181
-2.40644e-186
8.04548e-189
3.31038e-194
-2.40644e-186
-1.05824e-191
-2.40644e-186
-1.05824e-191
-4.44815e-186
-1.95558e-191
-5.28211e-181
-2.40644e-186
-9.76629e-181
-4.44815e-186
3.31038e-194
1.31551e-199
-1.05824e-191
-4.49397e-197
1.31551e-199
5.05165e-205
-4.49397e-197
-1.8438e-202
-4.49397e-197
-1.8438e-202
-8.30275e-197
-3.40575e-202
-1.05824e-191
-4.49397e-197
-1.95558e-191
-8.30275e-197
-1.95558e-191
-8.30275e-197
-2.54423e-191
-1.07999e-196
-8.30275e-197
-3.40575e-202
-1.07999e-196
-4.42934e-202
-1.07999e-196
-4.42934e-202
-5.8581e-197
-2.40269e-202
-2.54423e-191
-1.07999e-196
-1.37995e-191
-5.8581e-197
-9.76629e-181
-4.44815e-186
-1.27113e-180
-5.78823e-186
-4.44815e-186
-1.95558e-191
-5.78823e-186
-2.54423e-191
-5.78823e-186
-2.54423e-191
-3.13927e-186
-1.37995e-191
-1.27113e-180
-5.78823e-186
-6.89358e-181
-3.13927e-186
3.97739e-162
1.96268e-167
-8.51032e-160
-4.49235e-165
1.96268e-167
9.33025e-173
-4.49235e-165
-2.28362e-170
-4.49235e-165
-2.28362e-170
-8.31423e-165
-4.22491e-170
-8.51032e-160
-4.49235e-165
-1.57565e-159
-8.31423e-165
9.33025e-173
4.27349e-178
-2.28362e-170
-1.11849e-175
4.27349e-178
1.8878e-183
-1.11849e-175
-5.28211e-181
-1.11849e-175
-5.28211e-181
-2.06864e-175
-9.76629e-181
-2.28362e-170
-1.11849e-175
-4.22491e-170
-2.06864e-175
-4.22491e-170
-2.06864e-175
-5.50165e-170
-2.69309e-175
-2.06864e-175
-9.76629e-181
-2.69309e-175
-1.27113e-180
-2.69309e-175
-1.27113e-180
-1.46042e-175
-6.89358e-181
-5.50165e-170
-2.69309e-175
-2.98324e-170
-1.46042e-175
-1.57565e-159
-8.31423e-165
-2.05302e-159
-1.08299e-164
-8.31423e-165
-4.22491e-170
-1.08299e-164
-5.50165e-170
-1.08299e-164
-5.50165e-170
-5.8721e-165
-2.98324e-170
-2.05302e-159
-1.08299e-164
-1.11308e-159
-5.8721e-165
2.39783e-202
9.50687e-208
4.42247e-202
1.75327e-207
9.50687e-208
3.64444e-213
1.75327e-207
6.72058e-213
1.75327e-207
6.72058e-213
1.35033e-207
5.17629e-213
4.42247e-202
1.75327e-207
3.4059e-202
1.35033e-207
3.64444e-213
1.35125e-218
6.72058e-213
2.49161e-218
1.35125e-218
4.84705e-224
2.49161e-218
8.93694e-224
2.49161e-218
8.93694e-224
1.91916e-218
6.88395e-224
6.72058e-213
2.49161e-218
5.17629e-213
1.91916e-218
5.17629e-213
1.91916e-218
2.81288e-213
1.04285e-218
1.91916e-218
6.88395e-224
1.04285e-218
3.74052e-224
1.04285e-218
3.74052e-224
2.33746e-221
7.8542e-227
2.81288e-213
1.04285e-218
6.73137e-216
2.33746e-221
3.4059e-202
1.35033e-207
1.85099e-202
7.33821e-208
1.35033e-207
5.17629e-213
7.33821e-208
2.81288e-213
7.33821e-208
2.81288e-213
1.87518e-210
6.73137e-216
1.85099e-202
7.33821e-208
5.05165e-205
1.87518e-210
4.84705e-224
1.68251e-229
8.93694e-224
3.102e-229
1.68251e-229
5.6529e-235
3.102e-229
1.04214e-234
3.102e-229
1.04214e-234
2.3895e-229
8.02799e-235
8.93694e-224
3.102e-229
6.88395e-224
2.3895e-229
5.6529e-235
1.83861e-240
1.04214e-234
3.38937e-240
1.83861e-240
5.78985e-246
3.38937e-240
1.06727e-245
3.38937e-240
1.06727e-245
2.61103e-240
8.22202e-246
1.04214e-234
3.38937e-240
8.02799e-235
2.61103e-240
8.02799e-235
2.61103e-240
4.3618e-235
1.41858e-240
2.61103e-240
8.22202e-246
1.41858e-240
4.46691e-246
1.41858e-240
4.46691e-246
2.45173e-243
7.23814e-249
4.3618e-235
1.41858e-240
8.04228e-238
2.45173e-243
6.88395e-224
2.3895e-229
3.74052e-224
1.29832e-229
2.3895e-229
8.02799e-235
1.29832e-229
4.3618e-235
1.29832e-229
4.3618e-235
2.55435e-232
8.04228e-238
3.74052e-224
1.29832e-229
7.8542e-227
2.55435e-232
7.8542e-227
2.55435e-232
-3.72931e-224
-1.29467e-229
2.55435e-232
8.04228e-238
-1.29467e-229
-4.35031e-235
-1.29467e-229
-4.35031e-235
-2.38938e-229
-8.02758e-235
-3.72931e-224
-1.29467e-229
-6.88361e-224
-2.38938e-229
8.04228e-238
2.45173e-243
-4.35031e-235
-1.41508e-240
2.45173e-243
7.23814e-249
-1.41508e-240
-4.45654e-246
-1.41508e-240
-4.45654e-246
-2.6109e-240
-8.22159e-246
-4.35031e-235
-1.41508e-240
-8.02758e-235
-2.6109e-240
-8.02758e-235
-2.6109e-240
-1.04321e-234
-3.39261e-240
-2.6109e-240
-8.22159e-246
-3.39261e-240
-1.06822e-245
-3.39261e-240
-1.06822e-245
-1.8409e-240
-5.79658e-246
-1.04321e-234
-3.39261e-240
-5.66046e-235
-1.8409e-240
-6.88361e-224
-2.38938e-229
-8.94746e-224