<VTKFile type="UnstructuredGrid" version="0.1" byte_order="LittleEndian">
<UnstructuredGrid>
<Piece NumberOfPoints="2048" NumberOfCells="512">
<Points>
<DataArray type="Float64" NumberOfComponents="3" format="ascii">
0 0 0
0.125 0 0
0 0.125 0
0.125 0.125 0
0.125 0 0
0.25 0 0
0.125 0.125 0
0.25 0.125 0
0.125 0.125 0
0.25 0.125 0
0.125 0.25 0
0.25 0.25 0
0 0.125 0
0.125 0.125 0
0 0.25 0
0.125 0.25 0
0.25 0 0
0.375 0 0
0.25 0.125 0
0.375 0.125 0
0.375 0 0
0.5 0 0
0.375 0.125 0
0.5 0.125 0
0.375 0.125 0
0.5 0.125 0
0.375 0.25 0
0.5 0.25 0
0.25 0.125 0
0.375 0.125 0
0.25 0.25 0
0.375 0.25 0
0.25 0.25 0
0.375 0.25 0
0.25 0.375 0
0.375 0.375 0
0.375 0.25 0
0.5 0.25 0
0.375 0.375 0
0.5 0.375 0
0.375 0.375 0
0.5 0.375 0
0.375 0.5 0
0.5 0.5 0
0.25 0.375 0
0.375 0.375 0
0.25 0.5 0
0.375 0.5 0
0 0.25 0
0.125 0.25 0
0 0.375 0
0.125 0.375 0
0.125 0.25 0
0.25 0.25 0
0.125 0.375 0
0.25 0.375 0
0.125 0.375 0
0.25 0.375 0
0.125 0.5 0
0.25 0.5 0
0 0.375 0
0.125 0.375 0
0 0.5 0
0.125 0.5 0
0.5 0 0
0.625 0 0
0.5 0.125 0
0.625 0.125 0
0.625 0 0
0.75 0 0
0.625 0.125 0
0.75 0.125 0
0.625 0.125 0
0.75 0.125 0
0.625 0.25 0
0.75 0.25 0
0.5 0.125 0
0.625 0.125 0
0.5 0.25 0
0.625 0.25 0
0.75 0 0
0.875 0 0
0.75 0.125 0
0.875 0.125 0
0.875 0 0
1 0 0
0.875 0.125 0
1 0.125 0
0.875 0.125 0
1 0.125 0
0.875 0.25 0
1 0.25 0
0.75 0.125 0
0.875 0.125 0
0.75 0.25 0
0.875 0.25 0
0.75 0.25 0
0.875 0.25 0
0.75 0.375 0
0.875 0.375 0
0.875 0.25 0
1 0.25 0
0.875 0.375 0
1 0.375 0
0.875 0.375 0
1 0.375 0
0.875 0.5 0
1 0.5 0
0.75 0.375 0
0.875 0.375 0
0.75 0.5 0
0.875 0.5 0
0.5 0.25 0
0.625 0.25 0
0.5 0.375 0
0.625 0.375 0
0.625 0.25 0
0.75 0.25 0
0.625 0.375 0
0.75 0.375 0
0.625 0.375 0
0.75 0.375 0
0.625 0.5 0
0.75 0.5 0
0.5 0.375 0
0.625 0.375 0
0.5 0.5 0
0.625 0.5 0
0.5 0.5 0
0.625 0.5 0
0.5 0.625 0
0.625 0.625 0
0.625 0.5 0
0.75 0.5 0
0.625 0.625 0
0.75 0.625 0
0.625 0.625 0
0.75 0.625 0
0.625 0.75 0
0.75 0.75 0
0.5 0.625 0
0.625 0.625 0
0.5 0.75 0
0.625 0.75 0
0.75 0.5 0
0.875 0.5 0
0.75 0.625 0
0.875 0.625 0
0.875 0.5 0
1 0.5 0
0.875 0.625 0
1 0.625 0
0.875 0.625 0
1 0.625 0
0.875 0.75 0
1 0.75 0
0.75 0.625 0
0.875 0.625 0
0.75 0.75 0
0.875 0.75 0
0.75 0.75 0
0.875 0.75 0
0.75 0.875 0
0.875 0.875 0
0.875 0.75 0
1 0.75 0
0.875 0.875 0
1 0.875 0
0.875 0.875 0
1 0.875 0
0.875 1 0
1 1 0
0.75 0.875 0
0.875 0.875 0
0.75 1 0
0.875 1 0
0.5 0.75 0
0.625 0.75 0
0.5 0.875 0
0.625 0.875 0
0.625 0.75 0
0.75 0.75 0
0.625 0.875 0
0.75 0.875 0
0.625 0.875 0
0.75 0.875 0
0.625 1 0
0.75 1 0
0.5 0.875 0
0.625 0.875 0
0.5 1 0
0.625 1 0
0 0.5 0
0.125 0.5 0
0 0.625 0
0.125 0.625 0
0.125 0.5 0
0.25 0.5 0
0.125 0.625 0
0.25 0.625 0
0.125 0.625 0
0.25 0.625 0
0.125 0.75 0
0.25 0.75 0
0 0.625 0
0.125 0.625 0
0 0.75 0
0.125 0.75 0
0.25 0.5 0
0.375 0.5 0
0.25 0.625 0
0.375 0.625 0
0.375 0.5 0
0.5 0.5 0
0.375 0.625 0
0.5 0.625 0
0.375 0.625 0
0.5 0.625 0
0.375 0.75 0
0.5 0.75 0
0.25 0.625 0
0.375 0.625 0
0.25 0.75 0
0.375 0.75 0
0.25 0.75 0
0.375 0.75 0
0.25 0.875 0
0.375 0.875 0
0.375 0.75 0
0.5 0.75 0
0.375 0.875 0
0.5 0.875 0
0.375 0.875 0
0.5 0.875 0
0.375 1 0
0.5 1 0
0.25 0.875 0
0.375 0.875 0
0.25 1 0
0.375 1 0
0 0.75 0
0.125 0.75 0
0 0.875 0
0.125 0.875 0
0.125 0.75 0
0.25 0.75 0
0.125 0.875 0
0.25 0.875 0
0.125 0.875 0
0.25 0.875 0
0.125 1 0
0.25 1 0
0 0.875 0
0.125 0.875 0
0 1 0
0.125 1 0
1 0 0
1.125 0 0
1 0.125 0
1.125 0.125 0
1.125 0 0
1.25 0 0
1.125 0.125 0
1.25 0.125 0
1.125 0.125 0
1.25 0.125 0
1.125 0.25 0
1.25 0.25 0
1 0.125 0
1.125 0.125 0
1 0.25 0
1.125 0.25 0
1.25 0 0
1.375 0 0
1.25 0.125 0
1.375 0.125 0
1.375 0 0
1.5 0 0
1.375 0.125 0
1.5 0.125 0
1.375 0.125 0
1.5 0.125 0
1.375 0.25 0
1.5 0.25 0
1.25 0.125 0
1.375 0.125 0
1.25 0.25 0
1.375 0.25 0
1.25 0.25 0
1.375 0.25 0
1.25 0.375 0
1.375 0.375 0
1.375 0.25 0
1.5 0.25 0
1.375 0.375 0
1.5 0.375 0
1.375 0.375 0
1.5 0.375 0
1.375 0.5 0
1.5 0.5 0
1.25 0.375 0
1.375 0.375 0
1.25 0.5 0
1.375 0.5 0
1 0.25 0
1.125 0.25 0
1 0.375 0
1.125 0.375 0
1.125 0.25 0
1.25 0.25 0
1.125 0.375 0
1.25 0.375 0
1.125 0.375 0
1.25 0.375 0
1.125 0.5 0
1.25 0.5 0
1 0.375 0
1.125 0.375 0
1 0.5 0
1.125 0.5 0
1.5 0 0
1.625 0 0
1.5 0.125 0
1.625 0.125 0
1.625 0 0
1.75 0 0
1.625 0.125 0
1.75 0.125 0
1.625 0.125 0
1.75 0.125 0
1.625 0.25 0
1.75 0.25 0
1.5 0.125 0
1.625 0.125 0
1.5 0.25 0
1.625 0.25 0
1.75 0 0
1.875 0 0
1.75 0.125 0
1.875 0.125 0
1.875 0 0
2 0 0
1.875 0.125 0
2 0.125 0
1.875 0.125 0
2 0.125 0
1.875 0.25 0
2 0.25 0
1.75 0.125 0
1.875 0.125 0
1.75 0.25 0
1.875 0.25 0
1.75 0.25 0
1.875 0.25 0
1.75 0.375 0
1.875 0.375 0
1.875 0.25 0
2 0.25 0
1.875 0.375 0
2 0.375 0
1.875 0.375 0
2 0.375 0
1.875 0.5 0
2 0.5 0
1.75 0.375 0
1.875 0.375 0
1.75 0.5 0
1.875 0.5 0
1.5 0.25 0
1.625 0.25 0
1.5 0.375 0
1.625 0.375 0
1.625 0.25 0
1.75 0.25 0
1.625 0.375 0
1.75 0.375 0
1.625 0.375 0
1.75 0.375 0
1.625 0.5 0
1.75 0.5 0
1.5 0.375 0
1.625 0.375 0
1.5 0.5 0
1.625 0.5 0
1.5 0.5 0
1.625 0.5 0
1.5 0.625 0
1.625 0.625 0
1.625 0.5 0
1.75 0.5 0
1.625 0.625 0
1.75 0.625 0
1.625 0.625 0
1.75 0.625 0
1.625 0.75 0
1.75 0.75 0
1.5 0.625 0
1.625 0.625 0
1.5 0.75 0
1.625 0.75 0
1.75 0.5 0
1.875 0.5 0
1.75 0.625 0
1.875 0.625 0
1.875 0.5 0
2 0.5 0
1.875 0.625 0
2 0.625 0
1.875 0.625 0
2 0.625 0
1.875 0.75 0
2 0.75 0
1.75 0.625 0
1.875 0.625 0
1.75 0.75 0
1.875 0.75 0
1.75 0.75 0
1.875 0.75 0
1.75 0.875 0
1.875 0.875 0
1.875 0.75 0
2 0.75 0
1.875 0.875 0
2 0.875 0
1.875 0.875 0
2 0.875 0
1.875 1 0
2 1 0
1.75 0.875 0
1.875 0.875 0
1.75 1 0
1.875 1 0
1.5 0.75 0
1.625 0.75 0
1.5 0.875 0
1.625 0.875 0
1.625 0.75 0
1.75 0.75 0
1.625 0.875 0
1.75 0.875 0
1.625 0.875 0
1.75 0.875 0
1.625 1 0
1.75 1 0
1.5 0.875 0
1.625 0.875 0
1.5 1 0
1.625 1 0
1 0.5 0
1.125 0.5 0
1 0.625 0
1.125 0.625 0
1.125 0.5 0
1.25 0.5 0
1.125 0.625 0
1.25 0.625 0
1.125 0.625 0
1.25 0.625 0
1.125 0.75 0
1.25 0.75 0
1 0.625 0
1.125 0.625 0
1 0.75 0
1.125 0.75 0
1.25 0.5 0
1.375 0.5 0
1.25 0.625 0
1.375 0.625 0
1.375 0.5 0
1.5 0.5 0
1.375 0.625 0
1.5 0.625 0
1.375 0.625 0
1.5 0.625 0
1.375 0.75 0
1.5 0.75 0
1.25 0.625 0
1.375 0.625 0
1.25 0.75 0
1.375 0.75 0
1.25 0.75 0
1.375 0.75 0
1.25 0.875 0
1.375 0.875 0
1.375 0.75 0
1.5 0.75 0
1.375 0.875 0
1.5 0.875 0
1.375 0.875 0
1.5 0.875 0
1.375 1 0
1.5 1 0
1.25 0.875 0
1.375 0.875 0
1.25 1 0
1.375 1 0
1 0.75 0
1.125 0.75 0
1 0.875 0
1.125 0.875 0
1.125 0.75 0
1.25 0.75 0
1.125 0.875 0
1.25 0.875 0
1.125 0.875 0
1.25 0.875 0
1.125 1 0
1.25 1 0
1 0.875 0
1.125 0.875 0
1 1 0
1.125 1 0
2 0 0
2.125 0 0
2 0.125 0
2.125 0.125 0
2.125 0 0
2.25 0 0
2.125 0.125 0
2.25 0.125 0
2.125 0.125 0
2.25 0.125 0
2.125 0.25 0
2.25 0.25 0
2 0.125 0
2.125 0.125 0
2 0.25 0
2.125 0.25 0
2.25 0 0
2.375 0 0
2.25 0.125 0
2.375 0.125 0
2.375 0 0
2.5 0 0
2.375 0.125 0
2.5 0.125 0
2.375 0.125 0
2.5 0.125 0
2.375 0.25 0
2.5 0.25 0
2.25 0.125 0
2.375 0.125 0
2.25 0.25 0
2.375 0.25 0
2.25 0.25 0
2.375 0.25 0
2.25 0.375 0
2.375 0.375 0
2.375 0.25 0
2.5 0.25 0
2.375 0.375 0
2.5 0.375 0
2.375 0.375 0
2.5 0.375 0
2.375 0.5 0
2.5 0.5 0
2.25 0.375 0
2.375 0.375 0
2.25 0.5 0
2.375 0.5 0
2 0.25 0
2.125 0.25 0
2 0.375 0
2.125 0.375 0
2.125 0.25 0
2.25 0.25 0
2.125 0.375 0
2.25 0.375 0
2.125 0.375 0
2.25 0.375 0
2.125 0.5 0
2.25 0.5 0
2 0.375 0
2.125 0.375 0
2 0.5 0
2.125 0.5 0
2.5 0 0
2.625 0 0
2.5 0.125 0
2.625 0.125 0
2.625 0 0
2.75 0 0
2.625 0.125 0
2.75 0.125 0
2.625 0.125 0
2.75 0.125 0
2.625 0.25 0
2.75 0.25 0
2.5 0.125 0
2.625 0.125 0
2.5 0.25 0
2.625 0.25 0
2.75 0 0
2.875 0 0
2.75 0.125 0
2.875 0.125 0
2.875 0 0
3 0 0
2.875 0.125 0
3 0.125 0
2.875 0.125 0
3 0.125 0
2.875 0.25 0
3 0.25 0
2.75 0.125 0
2.875 0.125 0
2.75 0.25 0
2.875 0.25 0
2.75 0.25 0
2.875 0.25 0
2.75 0.375 0
2.875 0.375 0
2.875 0.25 0
3 0.25 0
2.875 0.375 0
3 0.375 0
2.875 0.375 0
3 0.375 0
2.875 0.5 0
3 0.5 0
2.75 0.375 0
2.875 0.375 0
2.75 0.5 0
2.875 0.5 0
2.5 0.25 0
2.625 0.25 0
2.5 0.375 0
2.625 0.375 0
2.625 0.25 0
2.75 0.25 0
2.625 0.375 0
2.75 0.375 0
2.625 0.375 0
2.75 0.375 0
2.625 0.5 0
2.75 0.5 0
2.5 0.375 0
2.625 0.375 0
2.5 0.5 0
2.625 0.5 0
2.5 0.5 0
2.625 0.5 0
2.5 0.625 0
2.625 0.625 0
2.625 0.5 0
2.75 0.5 0
2.625 0.625 0
2.75 0.625 0
2.625 0.625 0
2.75 0.625 0
2.625 0.75 0
2.75 0.75 0
2.5 0.625 0
2.625 0.625 0
2.5 0.75 0
2.625 0.75 0
2.75 0.5 0
2.875 0.5 0
2.75 0.625 0
2.875 0.625 0
2.875 0.5 0
3 0.5 0
2.875 0.625 0
3 0.625 0
2.875 0.625 0
3 0.625 0
2.875 0.75 0
3 0.75 0
2.75 0.625 0
2.875 0.625 0
2.75 0.75 0
2.875 0.75 0
2.75 0.75 0
2.875 0.75 0
2.75 0.875 0
2.875 0.875 0
2.875 0.75 0
3 0.75 0
2.875 0.875 0
3 0.875 0
2.875 0.875 0
3 0.875 0
2.875 1 0
3 1 0
2.75 0.875 0
2.875 0.875 0
2.75 1 0
2.875 1 0
2.5 0.75 0
2.625 0.75 0
2.5 0.875 0
2.625 0.875 0
2.625 0.75 0
2.75 0.75 0
2.625 0.875 0
2.75 0.875 0
2.625 0.875 0
2.75 0.875 0
2.625 1 0
2.75 1 0
2.5 0.875 0
2.625 0.875 0
2.5 1 0
2.625 1 0
2 0.5 0
2.125 0.5 0
2 0.625 0
2.125 0.625 0
2.125 0.5 0
2.25 0.5 0
2.125 0.625 0
2.25 0.625 0
2.125 0.625 0
2.25 0.625 0
2.125 0.75 0
2.25 0.75 0
2 0.625 0
2.125 0.625 0
2 0.75 0
2.125 0.75 0
2.25 0.5 0
2.375 0.5 0
2.25 0.625 0
2.375 0.625 0
2.375 0.5 0
2.5 0.5 0
2.375 0.625 0
2.5 0.625 0
2.375 0.625 0
2.5 0.625 0
2.375 0.75 0
2.5 0.75 0
2.25 0.625 0
2.375 0.625 0
2.25 0.75 0
2.375 0.75 0
2.25 0.75 0
2.375 0.75 0
2.25 0.875 0
2.375 0.875 0
2.375 0.75 0
2.5 0.75 0
2.375 0.875 0
2.5 0.875 0
2.375 0.875 0
2.5 0.875 0
2.375 1 0
2.5 1 0
2.25 0.875 0
2.375 0.875 0
2.25 1 0
2.375 1 0
2 0.75 0
2.125 0.75 0
2 0.875 0
2.125 0.875 0
2.125 0.75 0
2.25 0.75 0
2.125 0.875 0
2.25 0.875 0
2.125 0.875 0
2.25 0.875 0
2.125 1 0
2.25 1 0
2 0.875 0
2.125 0.875 0
2 1 0
2.125 1 0
3 0 0
3.125 0 0
3 0.125 0
3.125 0.125 0
3.125 0 0
3.25 0 0
3.125 0.125 0
3.25 0.125 0
3.125 0.125 0
3.25 0.125 0
3.125 0.25 0
3.25 0.25 0
3 0.125 0
3.125 0.125 0
3 0.25 0
3.125 0.25 0
3.25 0 0
3.375 0 0
3.25 0.125 0
3.375 0.125 0
3.375 0 0
3.5 0 0
3.375 0.125 0
3.5 0.125 0
3.375 0.125 0
3.5 0.125 0
3.375 0.25 0
3.5 0.25 0
3.25 0.125 0
3.375 0.125 0
3.25 0.25 0
3.375 0.25 0
3.25 0.25 0
3.375 0.25 0
3.25 0.375 0
3.375 0.375 0
3.375 0.25 0
3.5 0.25 0
3.375 0.375 0
3.5 0.375 0
3.375 0.375 0
3.5 0.375 0
3.375 0.5 0
3.5 0.5 0
3.25 0.375 0
3.375 0.375 0
3.25 0.5 0
[...]
<CellData Scalars="attribute">
<DataArray type="Int32" Name="attribute" format="ascii">
1
1
1
1
1
1
1
1
1
1
1
1
1
1
1
1
1
1
1
1
1
1
1
1
1
1
1
1
1
1
1
1
1
1
1
1
1
1
1
1
1
1
1
1
1
1
1
1
1
1
1
1
1
1
1
1
1
1
1
1
1
1
1
1
1
1
1
1
1
1
1
1
1
1
1
1
1
1
1
1
1
1
1
1
1
1
1
1
1
1
1
1
1
1
1
1
1
1
1
1
1
1
1
1
1
1
1
1
1
1
1
1
1
1
1
1
1
1
1
1
1
1
1
1
1
1
1
1
1
1
1
1
1
1
1
1
1
1
1
1
1
1
1
1
1
1
1
1
1
1
1
1
1
1
1
1
1
1
1
1
1
1
1
1
1
1
1
1
1
1
1
1
1
1
1
1
1
1
1
1
1
1
1
1
1
1
1
1
1
1
1
1
1
1
1
1
1
1
1
1
1
1
1
1
1
1
1
1
1
1
1
1
1
1
1
1
1
1
1
1
1
1
1
1
1
1
1
1
1
1
1
1
1
1
1
1
1
1
1
1
1
1
1
1
1
1
1
1
1
1
1
1
1
1
1
1
2
2
2
2
2
2
2
2
2
2
2
2
2
2
2
2
2
2
2
2
2
2
2
2
2
2
2
2
2
2
2
2
2
2
2
2
2
2
2
2
2
2
2
2
2
2
2
2
2
2
2
2
2
2
2
2
2
2
2
2
2
2
2
2
2
2
2
2
2
2
2
2
2
2
2
2
2
2
2
2
2
2
2
2
2
2
2
2
2
2
2
2
2
2
2
2
2
2
2
2
2
2
2
2
2
2
2
2
2
2
2
2
2
2
2
2
2
2
2
2
2
2
2
2
2
2
2
2
2
2
2
2
2
2
2
2
2
2
2
2
2
2
2
2
2
2
2
2
2
2
2
2
2
2
2
2
2
2
2
2
2
2
2
2
2
2
2
2
2
2
2
2
2
2
2
2
2
2
2
2
2
2
2
2
2
2
2
2
2
2
2
2
2
2
2
2
2
2
2
2
2
2
2
2
2
2
2
2
2
2
2
2
2
2
2
2
2
2
2
2
2
2
2
2
2
2
2
2
2
2
2
2
2
2
2
2
2
2
2
2
2
2
2
2
2
2
2
2
2
2
2
2
2
2
2
2
</DataArray>
</CellData>
<PointData >
<DataArray type="Float64" Name="Pressure" NumberOfComponents="1" format="ascii" >
-0.000164023
-1.22901e-07
-0.000268404
-2.03445e-07
-1.22901e-07
3.88025e-12
-2.03445e-07
6.71946e-12
-2.03445e-07
6.71946e-12
-1.36581e-07
4.56301e-12
-0.000268404
-2.03445e-07
-0.000178938
-1.36581e-07
3.88025e-12
-7.87349e-17
6.71946e-12
-1.4057e-16
-7.87349e-17
1.62877e-21
-1.4057e-16
3.0148e-21
-1.4057e-16
3.0148e-21
-9.78752e-17
2.15598e-21
6.71946e-12
-1.4057e-16
4.56301e-12
-9.78752e-17
4.56301e-12
-9.78752e-17
2.33835e-12
-5.00127e-17
-9.78752e-17
2.15598e-21
-5.00127e-17
1.10283e-21
-5.00127e-17
1.10283e-21
-1.65499e-18
3.49768e-23
2.33835e-12
-5.00127e-17
8.23996e-14
-1.65499e-18
-0.000178938
-1.36581e-07
-8.94701e-05
-6.93551e-08
-1.36581e-07
4.56301e-12
-6.93551e-08
2.33835e-12
-6.93551e-08
2.33835e-12
-1.53598e-09
8.23996e-14
-8.94701e-05
-6.93551e-08
-1.89016e-09
-1.53598e-09
1.62877e-21
-1.75099e-26
3.0148e-21
-3.35891e-26
-1.75099e-26
3.2605e-31
-3.35891e-26
6.28943e-31
-3.35891e-26
6.28943e-31
-2.48815e-26
4.72574e-31
3.0148e-21
-3.35891e-26
2.15598e-21
-2.48815e-26
3.2605e-31
-1.48133e-36
6.28943e-31
-3.14995e-36
-1.48133e-36
4.2106e-41
-3.14995e-36
8.2439e-41
-3.14995e-36
8.2439e-41
-2.5464e-36
6.38376e-41
6.28943e-31
-3.14995e-36
4.72574e-31
-2.5464e-36
4.72574e-31
-2.5464e-36
2.45681e-31
-1.34261e-36
-2.5464e-36
6.38376e-41
-1.34261e-36
3.39009e-41
-1.34261e-36
3.39009e-41
-3.86935e-38
8.6312e-43
2.45681e-31
-1.34261e-36
7.04576e-33
-3.86935e-38
2.15598e-21
-2.48815e-26
1.10283e-21
-1.28057e-26
-2.48815e-26
4.72574e-31
-1.28057e-26
2.45681e-31
-1.28057e-26
2.45681e-31
-3.91002e-28
7.04576e-33
1.10283e-21
-1.28057e-26
3.49768e-23
-3.91002e-28
3.49768e-23
-3.91002e-28
-1.04777e-21
1.21962e-26
-3.91002e-28
7.04576e-33
1.21962e-26
-2.34932e-31
1.21962e-26
-2.34932e-31
2.47924e-26
-4.71325e-31
-1.04777e-21
1.21962e-26
-2.14585e-21
2.47924e-26
7.04576e-33
-3.86935e-38
-2.34932e-31
1.28398e-36
-3.86935e-38
8.6312e-43
1.28398e-36
-3.26213e-41
1.28398e-36
-3.26213e-41
2.53953e-36
-6.37342e-41
-2.34932e-31
1.28398e-36
-4.71325e-31
2.53953e-36
-4.71325e-31
2.53953e-36
-6.38979e-31
3.19792e-36
2.53953e-36
-6.37342e-41
3.19792e-36
-8.35924e-41
3.19792e-36
-8.35924e-41
1.51365e-36
-4.2921e-41
-6.38979e-31
3.19792e-36
-3.33388e-31
1.51365e-36
-2.14585e-21
2.47924e-26
-3.06853e-21
3.41607e-26
2.47924e-26
-4.71325e-31
3.41607e-26
-6.38979e-31
3.41607e-26
-6.38979e-31
1.79348e-26
-3.33388e-31
-3.06853e-21
3.41607e-26
-1.67159e-21
1.79348e-26
-1.89016e-09
-1.53598e-09
8.9467e-05
6.68762e-08
-1.53598e-09
8.23996e-14
6.68762e-08
-2.20565e-12
6.68762e-08
-2.20565e-12
1.35881e-07
-4.52655e-12
8.9467e-05
6.68762e-08
0.000178937
1.35881e-07
8.23996e-14
-1.65499e-18
-2.20565e-12
4.73743e-17
-1.65499e-18
3.49768e-23
4.73743e-17
-1.04777e-21
4.73743e-17
-1.04777e-21
9.72615e-17
-2.14585e-21
-2.20565e-12
4.73743e-17
-4.52655e-12
9.72615e-17
-4.52655e-12
9.72615e-17
-6.84374e-12
1.43185e-16
9.72615e-17
-2.14585e-21
1.43185e-16
-3.06853e-21
1.43185e-16
-3.06853e-21
8.09611e-17
-1.67159e-21
-6.84374e-12
1.43185e-16
-4.00752e-12
8.09611e-17
0.000178937
1.35881e-07
0.000268407
2.05734e-07
1.35881e-07
-4.52655e-12
2.05734e-07
-6.84374e-12
2.05734e-07
-6.84374e-12
1.25326e-07
-4.00752e-12
0.000268407
2.05734e-07
0.000164026
1.25326e-07
4.2106e-41
3.1926e-47
8.2439e-41
1.12204e-47
3.1926e-47
4.20723e-51
1.12204e-47
8.16426e-51
1.12204e-47
8.16426e-51
-2.1196e-47
6.37169e-51
8.2439e-41
1.12204e-47
6.38376e-41
-2.1196e-47
4.20723e-51
1.96615e-56
8.16426e-51
3.32688e-56
1.96615e-56
3.46414e-61
3.32688e-56
6.60142e-61
3.32688e-56
6.60142e-61
2.29586e-56
5.12412e-61
8.16426e-51
3.32688e-56
6.37169e-51
2.29586e-56
6.37169e-51
2.29586e-56
3.43399e-51
1.19664e-56
2.29586e-56
5.12412e-61
1.19664e-56
2.77837e-61
1.19664e-56
2.77837e-61
2.01125e-58
5.28513e-63
3.43399e-51
1.19664e-56
7.60796e-53
2.01125e-58
6.38376e-41
-2.1196e-47
3.39009e-41
-1.43417e-47
-2.1196e-47
6.37169e-51
-1.43417e-47
3.43399e-51
-1.43417e-47
3.43399e-51
-8.03401e-49
7.60796e-53
3.39009e-41
-1.43417e-47
8.6312e-43
-8.03401e-49
3.46414e-61
2.25226e-66
6.60142e-61
4.03714e-66
2.25226e-66
2.30431e-71
4.03714e-66
4.32806e-71
4.03714e-66
4.32806e-71
2.96594e-66
3.33641e-71
6.60142e-61
4.03714e-66
5.12412e-61
2.96594e-66
2.30431e-71
1.55832e-76
4.32806e-71
2.84528e-76
1.55832e-76
1.20345e-81
2.84528e-76
2.24178e-81
2.84528e-76
2.24178e-81
2.13732e-76
1.72153e-81
4.32806e-71
2.84528e-76
3.33641e-71
2.13732e-76
3.33641e-71
2.13732e-76
1.81154e-71
1.14909e-76
2.13732e-76
1.72153e-81
1.14909e-76
9.34922e-82
1.14909e-76
9.34922e-82
1.65261e-78
1.3097e-83
1.81154e-71
1.14909e-76
2.95124e-73
1.65261e-78
5.12412e-61
2.96594e-66
2.77837e-61
1.57923e-66
2.96594e-66
3.33641e-71
1.57923e-66
1.81154e-71
1.57923e-66
1.81154e-71
2.53743e-68
2.95124e-73
2.77837e-61
1.57923e-66
5.28513e-63
2.53743e-68
5.28513e-63
2.53743e-68
-2.7023e-61
-1.54333e-66
2.53743e-68
2.95124e-73
-1.54333e-66
-1.76936e-71
-1.54333e-66
-1.76936e-71
-2.96691e-66
-3.33525e-71
-2.7023e-61
-1.54333e-66
-5.12089e-61
-2.96691e-66
2.95124e-73
1.65261e-78
-1.76936e-71
-1.12571e-76
1.65261e-78
1.3097e-83
-1.12571e-76
-9.16286e-82
-1.12571e-76
-9.16286e-82
-2.13766e-76
-1.72122e-81
-1.76936e-71
-1.12571e-76
-3.33525e-71
-2.13766e-76
-3.33525e-71
-2.13766e-76
-4.36788e-71
-2.86992e-76
-2.13766e-76
-1.72122e-81
-2.86992e-76
-2.25979e-81
-2.86992e-76
-2.25979e-81
-1.57588e-76
-1.21622e-81
-4.36788e-71
-2.86992e-76
-2.33252e-71
-1.57588e-76
-5.12089e-61
-2.96691e-66
-6.67114e-61
-4.07718e-66
-2.96691e-66
-3.33525e-71
-4.07718e-66
-4.36788e-71
-4.07718e-66
-4.36788e-71
-2.28115e-66
-2.33252e-71
-6.67114e-61
-4.07718e-66
-3.51335e-61
-2.28115e-66
8.6312e-43
-8.03401e-49
-3.26213e-41
1.3085e-47
-8.03401e-49
7.60796e-53
1.3085e-47
-3.32325e-51
1.3085e-47
-3.32325e-51
2.0797e-47
-6.36508e-51
-3.26213e-41
1.3085e-47
-6.37342e-41
2.0797e-47
7.60796e-53
2.01125e-58
-3.32325e-51
-1.16832e-56
2.01125e-58
5.28513e-63
-1.16832e-56
-2.7023e-61
-1.16832e-56
-2.7023e-61
-2.298e-56
-5.12089e-61
-3.32325e-51
-1.16832e-56
-6.36508e-51
-2.298e-56
-6.36508e-51
-2.298e-56
-8.26353e-51
-3.36442e-56
-2.298e-56
-5.12089e-61
-3.36442e-56
-6.67114e-61
-3.36442e-56
-6.67114e-61
-1.99434e-56
-3.51335e-61
-8.26353e-51
-3.36442e-56
-4.27698e-51
-1.99434e-56
-6.37342e-41
2.0797e-47
-8.35924e-41
-1.12784e-47
2.0797e-47
-6.36508e-51
-1.12784e-47
-8.26353e-51
-1.12784e-47
-8.26353e-51
-3.22397e-47
-4.27698e-51
-8.35924e-41
-1.12784e-47
-4.2921e-41
-3.22397e-47
1.20345e-81
7.62433e-87
2.24178e-81
1.40239e-86
7.62433e-87
4.89045e-92
1.40239e-86
9.07265e-92
1.40239e-86
9.07265e-92
1.06464e-86
6.95879e-92
2.24178e-81
1.40239e-86
1.72153e-81
1.06464e-86
4.89045e-92
2.80057e-97
9.07265e-92
5.16677e-97
2.80057e-97
1.55387e-102
5.16677e-97
2.877e-102
5.16677e-97
2.877e-102
3.94427e-97
2.20698e-102
9.07265e-92
5.16677e-97
6.95879e-92
3.94427e-97
6.95879e-92
3.94427e-97
3.77997e-92
2.13787e-97
3.94427e-97
2.20698e-102
2.13787e-97
1.19919e-102
2.13787e-97
1.19919e-102
2.37744e-99
1.25998e-104
3.77997e-92
2.13787e-97
4.5767e-94
2.37744e-99
1.72153e-81
1.06464e-86
9.34922e-82
5.75388e-87
1.06464e-86
6.95879e-92
5.75388e-87
3.77997e-92
5.75388e-87
3.77997e-92
7.29705e-89
4.5767e-94
9.34922e-82
5.75388e-87
1.3097e-83
7.29705e-89
1.55387e-102
7.9672e-108
2.877e-102
1.47154e-107
7.9672e-108
3.89885e-113
1.47154e-107
7.21142e-113
1.47154e-107
7.21142e-113
1.12687e-107
5.53541e-113
2.877e-102
1.47154e-107
2.20698e-102
1.12687e-107
3.89885e-113
1.78959e-118
7.21142e-113
3.3064e-118
1.78959e-118
7.80601e-124
3.3064e-118
1.44295e-123
3.3064e-118
1.44295e-123
2.53666e-118
1.10837e-123
7.21142e-113
3.3064e-118
5.53541e-113
2.53666e-118
5.53541e-113
2.53666e-118
3.00863e-113
1.37826e-118
2.53666e-118
1.10837e-123
1.37826e-118
6.02554e-124
1.37826e-118
6.02554e-124
1.17194e-120
4.80194e-126
3.00863e-113
1.37826e-118
2.75063e-115
1.17194e-120
2.20698e-102
1.12687e-107
1.19919e-102
6.11751e-108
1.12687e-107
5.53541e-113
6.11751e-108
3.00863e-113
6.11751e-108
3.00863e-113
5.95148e-110
2.75063e-115
1.19919e-102
6.11751e-108
1.25998e-104
5.95148e-110
1.25998e-104
5.95148e-110
-1.18134e-102
-6.03336e-108
5.95148e-110
2.75063e-115
-6.03336e-108
-2.96969e-113
-6.03336e-108
-2.96969e-113
-1.12688e-107
-5.53526e-113
-1.18134e-102
-6.03336e-108
-2.20688e-102
-1.12688e-107
2.75063e-115
1.17194e-120
-2.96969e-113
-1.36169e-118
1.17194e-120
4.80194e-126
-1.36169e-118
-5.95757e-124
-1.36169e-118
-5.95757e-124
-2.53666e-118
-1.10835e-123
-2.96969e-113
-1.36169e-118
-5.53526e-113
-2.53666e-118
-5.53526e-113
-2.53666e-118
-7.24995e-113
-3.32292e-118
-2.53666e-118
-1.10835e-123
-3.32292e-118
-1.44967e-123
-3.32292e-118
-1.44967e-123
-1.80128e-118
-7.85365e-124
-7.24995e-113
-3.32292e-118
-3.92614e-113
-1.80128e-118
-2.20688e-102
-1.12688e-107
-2.89461e-102
-1.47998e-107
-1.12688e-107
-5.53526e-113
-1.47998e-107
-7.24995e-113
-1.47998e-107
-7.24995e-113
-8.02692e-108
-3.92614e-113
-2.89461e-102
-1.47998e-107
-1.56635e-102
-8.02692e-108
1.3097e-83
7.29705e-89
-9.16286e-82
-5.65071e-87
7.29705e-89
4.5767e-94
-5.65071e-87
-3.71503e-92
-5.65071e-87
-3.71503e-92
-1.06472e-86
-6.95818e-92
-9.16286e-82
-5.65071e-87
-1.72122e-81
-1.06472e-86
4.5767e-94
2.37744e-99
-3.71503e-92
-2.10426e-97
2.37744e-99
1.25998e-104
-2.10426e-97
-1.18134e-102
-2.10426e-97
-1.18134e-102
-3.94441e-97
-2.20688e-102
-3.71503e-92
-2.10426e-97
-6.95818e-92
-3.94441e-97
-6.95818e-92
-3.94441e-97
-9.13627e-92
-5.20075e-97
-3.94441e-97
-2.20688e-102
-5.20075e-97
-2.89461e-102
-5.20075e-97
-2.89461e-102
-2.82464e-97
-1.56635e-102
-9.13627e-92
-5.20075e-97
-4.93557e-92
-2.82464e-97
-1.72122e-81
-1.06472e-86
-2.25979e-81
-1.41297e-86
-1.06472e-86
-6.95818e-92
-1.41297e-86
-9.13627e-92
-1.41297e-86
-9.13627e-92
-7.69942e-87
-4.93557e-92
-2.25979e-81
-1.41297e-86
-1.21622e-81
-7.69942e-87
7.80601e-124
3.21603e-129
1.44295e-123
5.9416e-129
3.21603e-129
1.25841e-134
5.9416e-129
2.32519e-134
5.9416e-129
2.32519e-134
4.56375e-129
1.78717e-134
1.44295e-123
5.9416e-129
1.10837e-123
4.56375e-129
1.25841e-134
4.66771e-140
2.32519e-134
8.62187e-140
4.66771e-140
1.64522e-145
8.62187e-140
3.03883e-145
8.62187e-140
3.03883e-145
6.62768e-140
2.33689e-145
2.32519e-134
8.62187e-140
1.78717e-134
6.62768e-140
1.78717e-134
6.62768e-140
9.71691e-135
3.60328e-140
6.62768e-140
2.33689e-145
3.60328e-140
1.27062e-145
3.60328e-140
1.27062e-145
2.3397e-142
7.71863e-148
9.71691e-135
3.60328e-140
6.758e-137
2.3397e-142
1.10837e-123
4.56375e-129
6.02554e-124
2.48071e-129
4.56375e-129
1.78717e-134
2.48071e-129
9.71691e-135
2.48071e-129
9.71691e-135
1.84319e-131
6.758e-137
6.02554e-124
2.48071e-129
4.80194e-126
1.84319e-131
1.64522e-145
5.50776e-151
3.03883e-145
1.0171e-150
5.50776e-151
1.75321e-156
1.0171e-150
3.2373e-156
1.0171e-150
3.2373e-156
7.82283e-151
2.49053e-156
3.03883e-145
1.0171e-150
2.33689e-145
7.82283e-151
1.75321e-156
5.30585e-162
3.2373e-156
9.7956e-162
5.30585e-162
1.52725e-167
9.7956e-162
2.81926e-167
9.7956e-162
2.81926e-167
7.53709e-162
2.16962e-167
3.2373e-156
9.7956e-162
2.49053e-156
7.53709e-162
2.49053e-156
7.53709e-162
1.35413e-156
4.09781e-162
7.53709e-162
2.16962e-167
4.09781e-162
1.17957e-167
4.09781e-162
1.17957e-167
2.03394e-164
5.47667e-170
1.35413e-156
4.09781e-162
7.1895e-159
2.03394e-164
2.33689e-145
7.82283e-151
1.27062e-145
4.25327e-151
7.82283e-151
2.49053e-156
4.25327e-151
1.35413e-156
4.25327e-151
1.35413e-156
2.41418e-153
7.1895e-159
1.27062e-145
4.25327e-151
7.71863e-148
2.41418e-153
7.71863e-148
2.41418e-153
-1.25969e-145
-4.21908e-151
2.41418e-153
7.1895e-159
-4.21908e-151
-1.34394e-156
-4.21908e-151
-1.34394e-156
-7.82263e-151
-2.49046e-156
-1.25969e-145
-4.21908e-151
-2.33683e-145
-7.82263e-151
7.1895e-159
2.03394e-164
-1.34394e-156
-4.06899e-162
2.03394e-164
5.47667e-170
-4.06899e-162
-1.17181e-167
-4.06899e-162
-1.17181e-167
-7.53687e-162
-2.16955e-167
-1.34394e-156
-4.06899e-162
-2.49046e-156
-7.53687e-162
-2.49046e-156
-7.53687e-162
-3.2473e-156
-9.82387e-162
-7.53687e-162
-2.16955e-167
-9.82387e-162
-2.82686e-167
-9.82387e-162
-2.82686e-167
-5.32587e-162
-1.53262e-167
-3.2473e-156
-9.82387e-162
-1.7603e-156
-5.32587e-162
-2.33683e-145
-7.82263e-151
-3.0496e-145
-1.02047e-150
-7.82263e-151
-2.49046e-156
-1.02047e-150
-3.2473e-156
-1.02047e-150
-3.2473e-156
-5.5316e-151
-1.7603e-156
-3.0496e-145
-1.02047e-150
-1.65285e-145
-5.5316e-151
4.80194e-126
1.84319e-131
-5.95757e-124
-2.45463e-129
1.84319e-131
6.758e-137
-2.45463e-129
-9.62124e-135
-2.45463e-129
-9.62124e-135
-4.5637e-129
-1.78713e-134
-5.95757e-124
-2.45463e-129
-1.10835e-123
-4.5637e-129
6.758e-137
2.3397e-142
-9.62124e-135
-3.57016e-140
2.3397e-142
7.71863e-148
-3.57016e-140
-1.25969e-145
-3.57016e-140
-1.25969e-145
-6.62755e-140
-2.33683e-145
-9.62124e-135
-3.57016e-140
-1.78713e-134
-6.62755e-140
-1.78713e-134
-6.62755e-140
-2.33464e-134
-8.65461e-140
-6.62755e-140
-2.33683e-145
-8.65461e-140
-3.0496e-145
-8.65461e-140
-3.0496e-145
-4.69089e-140
-1.65285e-145
-2.33464e-134
-8.65461e-140
-1.26511e-134
-4.69089e-140
-1.10835e-123
-4.5637e-129
-1.44967e-123
-5.96748e-129
-4.5637e-129
-1.78713e-134
-5.96748e-129
-2.33464e-134
-5.96748e-129
-2.33464e-134
-3.23436e-129
-1.26511e-134
-1.44967e-123
-5.96748e-129
-7.85365e-124
-3.23436e-129
1.52725e-167
4.18043e-173
2.81926e-167
7.71592e-173
4.18043e-173
1.08805e-178
7.71592e-173
2.00801e-178
7.71592e-173
2.00801e-178
5.93868e-173
1.5457e-178
2.81926e-167
7.71592e-173
2.16962e-167
5.93868e-173
1.08805e-178
2.6915e-184
2.00801e-178
4.96659e-184
2.6915e-184
6.32406e-190
4.96659e-184
1.16684e-189
4.96659e-184
1.16684e-189
3.82349e-184
8.98374e-190
2.00801e-178
4.96659e-184
1.5457e-178
3.82349e-184
1.5457e-178
3.82349e-184
8.40284e-179
2.07845e-184
3.82349e-184
8.98374e-190
2.07845e-184
4.88333e-190
2.07845e-184
4.88333e-190
7.8986e-187
1.7365e-192
8.40284e-179
2.07845e-184
3.41344e-181
7.8986e-187
2.16962e-167
5.93868e-173
1.17957e-167
3.22856e-173
5.93868e-173
1.5457e-178
3.22856e-173
8.40284e-179
3.22856e-173
8.40284e-179
1.40188e-175
3.41344e-181
1.17957e-167
3.22856e-173
5.47667e-170
1.40188e-175
6.32406e-190
1.41008e-195
1.16684e-189
2.60144e-195
1.41008e-195
2.97982e-201
2.60144e-195
5.49689e-201
2.60144e-195
5.49689e-201
2.00306e-195
4.23282e-201
1.16684e-189
2.60144e-195
8.98374e-190
2.00306e-195
2.97982e-201
5.95772e-207
5.49689e-201
1.09892e-206
5.95772e-207
1.12435e-212
1.09892e-206
2.07371e-212
1.09892e-206
2.07371e-212
8.46265e-207
1.59704e-212
5.49689e-201
1.09892e-206
4.23282e-201
8.46265e-207
4.23282e-201
8.46265e-207
2.30062e-201
4.59938e-207
8.46265e-207
1.59704e-212
4.59938e-207
8.67935e-213
4.59938e-207
8.67935e-213
1.34081e-209
2.36877e-215
2.30062e-201
4.59938e-207
7.16507e-204
1.34081e-209
8.98374e-190
2.00306e-195
4.88333e-190
1.08875e-195
2.00306e-195
4.23282e-201
1.08875e-195
2.30062e-201
1.08875e-195
2.30062e-201
3.6229e-198
7.16507e-204
4.88333e-190
1.08875e-195
1.7365e-192
3.6229e-198
1.7365e-192
3.6229e-198
-4.85867e-190
-1.08361e-195
3.6229e-198
7.16507e-204
-1.08361e-195
-2.29044e-201
-1.08361e-195
-2.29044e-201
-2.00297e-195
-4.23264e-201
-4.85867e-190
-1.08361e-195
-8.98338e-190
-2.00297e-195
7.16507e-204
1.34081e-209
-2.29044e-201
-4.58032e-207
1.34081e-209
2.36877e-215
-4.58032e-207
-8.64564e-213
-4.58032e-207
-8.64564e-213
-8.46228e-207
-1.59696e-212
-2.29044e-201
-4.58032e-207
-4.23264e-201
-8.46228e-207
-4.23264e-201
-8.46228e-207
-5.50669e-201
-1.10075e-206
-8.46228e-207
-1.59696e-212
-1.10075e-206
-2.07693e-212
-1.10075e-206
-2.07693e-212
-5.97067e-207
-1.12663e-212
-5.50669e-201
-1.10075e-206
-2.98676e-201
-5.97067e-207
-8.98338e-190
-2.00297e-195
-1.16923e-189
-2.60641e-195
-2.00297e-195
-4.23264e-201
-2.60641e-195
-5.50669e-201
-2.60641e-195
-5.50669e-201
-1.4136e-195
-2.98676e-201
-1.16923e-189
-2.60641e-195
-6.34097e-190
-1.4136e-195
5.47667e-170
1.40188e-175
-1.17181e-167
-3.20868e-173
1.40188e-175
3.41344e-181
-3.20868e-173
-8.35442e-179
-3.20868e-173
-8.35442e-179
-5.93848e-173
-1.54564e-178
-1.17181e-167
-3.20868e-173
-2.16955e-167
-5.93848e-173
3.41344e-181
7.8986e-187
-8.35442e-179
-2.06724e-184
7.8986e-187
1.7365e-192
-2.06724e-184
-4.85867e-190
-2.06724e-184
-4.85867e-190
-3.82335e-184
-8.98338e-190
-8.35442e-179
-2.06724e-184
-1.54564e-178
-3.82335e-184
-1.54564e-178
-3.82335e-184
-2.01273e-178
-4.97748e-184
-3.82335e-184
-8.98338e-190
-4.97748e-184
-1.16923e-189
-4.97748e-184
-1.16923e-189
-2.69921e-184
-6.34097e-190
-2.01273e-178
-4.97748e-184
-1.09139e-178
-2.69921e-184
-2.16955e-167
-5.93848e-173
-2.82686e-167
-7.73533e-173
-5.93848e-173
-1.54564e-178
-7.73533e-173
-2.01273e-178
-7.73533e-173
-2.01273e-178
-4.19418e-173
-1.09139e-178
-2.82686e-167
-7.73533e-173
-1.53262e-167
-4.19418e-173
1.12435e-212
1.99651e-218
2.07371e-212
3.68197e-218
1.99651e-218
3.32105e-224
3.68197e-218
6.12422e-224
3.68197e-218
6.12422e-224
2.83577e-218
4.71696e-224
2.07371e-212
3.68197e-218
1.59704e-212
2.83577e-218
3.32105e-224
5.14244e-230
6.12422e-224
9.48226e-230
5.14244e-230
7.34213e-236
9.48226e-230
1.35374e-235
9.48226e-230
1.35374e-235
7.3037e-230
1.04276e-235
6.12422e-224
9.48226e-230
4.71696e-224
7.3037e-230
4.71696e-224
7.3037e-230
2.56327e-224
3.96876e-230
7.3037e-230
1.04276e-235
3.96876e-230
5.666e-236
3.96876e-230
5.666e-236
8.89579e-233
1.18975e-238
2.56327e-224
3.96876e-230
6.13416e-227
8.89579e-233
1.59704e-212
2.83577e-218
8.67935e-213
1.54107e-218
2.83577e-218
4.71696e-224
1.54107e-218
2.56327e-224
1.54107e-218
2.56327e-224
3.93808e-221
6.13416e-227
8.67935e-213
1.54107e-218
2.36877e-215
3.93808e-221
7.34213e-236
9.51785e-242
1.35374e-235
1.75478e-241
9.51785e-242
1.08934e-247
1.75478e-241
2.00826e-247
1.75478e-241
2.00826e-247
1.35172e-241
1.54703e-247
1.35374e-235
1.75478e-241
1.04276e-235
1.35172e-241
1.08934e-247
1.03512e-253
2.00826e-247
1.90818e-253
1.03512e-253
6.69491e-260
1.90818e-253
1.2341e-259
1.90818e-253
1.2341e-259
1.46999e-253
9.50726e-260
2.00826e-247
1.90818e-253
1.54703e-247
1.46999e-253
1.54703e-247
1.46999e-253
8.40539e-248
7.98649e-254
1.46999e-253
9.50726e-260
7.98649e-254
5.16515e-260
7.98649e-254
5.16515e-260
1.38033e-256
8.36982e-263
8.40539e-248
7.98649e-254
1.54981e-250
1.38033e-256
1.04276e-235
1.35172e-241
5.666e-236
7.3445e-242
1.35172e-241
1.54703e-247
7.3445e-242
8.40539e-248
7.3445e-242
8.40539e-248
1.445e-244
1.54981e-250
5.666e-236
7.3445e-242
1.18975e-238
1.445e-244
1.18975e-238
1.445e-244
-5.64902e-236
-7.32386e-242
1.445e-244
1.54981e-250
-7.32386e-242
-8.38324e-248
-7.32386e-242
-8.38324e-248
-1.35165e-241
-1.54695e-247
-5.64902e-236
-7.32386e-242
-1.0427e-235
-1.35165e-241
1.54981e-250
1.38033e-256
-8.38324e-248
-7.96674e-254
1.38033e-256
8.36982e-263
-7.96674e-254
-5.15317e-260
-7.96674e-254
-5.15317e-260
-1.46991e-253
-9.50676e-260
-8.38324e-248
-7.96674e-254
-1.54695e-247
-1.46991e-253
-1.54695e-247
-1.46991e-253
-2.01032e-247
-1.91001e-253
-1.46991e-253
-9.50676e-260
-1.91001e-253
-1.2352e-259
-1.91001e-253
-1.2352e-259
-1.03641e-253
-6.70269e-260
-2.01032e-247
-1.91001e-253
-1.0908e-247
-1.03641e-253
-1.0427e-235