<VTKFile type="UnstructuredGrid" version="0.1" byte_order="LittleEndian">
<UnstructuredGrid>
<Piece NumberOfPoints="2048" NumberOfCells="512">
<Points>
<DataArray type="Float64" NumberOfComponents="3" format="ascii">
0 0 0
0.125 0 0
0 0.125 0
0.125 0.125 0
0.125 0 0
0.25 0 0
0.125 0.125 0
0.25 0.125 0
0.125 0.125 0
0.25 0.125 0
0.125 0.25 0
0.25 0.25 0
0 0.125 0
0.125 0.125 0
0 0.25 0
0.125 0.25 0
0.25 0 0
0.375 0 0
0.25 0.125 0
0.375 0.125 0
0.375 0 0
0.5 0 0
0.375 0.125 0
0.5 0.125 0
0.375 0.125 0
0.5 0.125 0
0.375 0.25 0
0.5 0.25 0
0.25 0.125 0
0.375 0.125 0
0.25 0.25 0
0.375 0.25 0
0.25 0.25 0
0.375 0.25 0
0.25 0.375 0
0.375 0.375 0
0.375 0.25 0
0.5 0.25 0
0.375 0.375 0
0.5 0.375 0
0.375 0.375 0
0.5 0.375 0
0.375 0.5 0
0.5 0.5 0
0.25 0.375 0
0.375 0.375 0
0.25 0.5 0
0.375 0.5 0
0 0.25 0
0.125 0.25 0
0 0.375 0
0.125 0.375 0
0.125 0.25 0
0.25 0.25 0
0.125 0.375 0
0.25 0.375 0
0.125 0.375 0
0.25 0.375 0
0.125 0.5 0
0.25 0.5 0
0 0.375 0
0.125 0.375 0
0 0.5 0
0.125 0.5 0
0.5 0 0
0.625 0 0
0.5 0.125 0
0.625 0.125 0
0.625 0 0
0.75 0 0
0.625 0.125 0
0.75 0.125 0
0.625 0.125 0
0.75 0.125 0
0.625 0.25 0
0.75 0.25 0
0.5 0.125 0
0.625 0.125 0
0.5 0.25 0
0.625 0.25 0
0.75 0 0
0.875 0 0
0.75 0.125 0
0.875 0.125 0
0.875 0 0
1 0 0
0.875 0.125 0
1 0.125 0
0.875 0.125 0
1 0.125 0
0.875 0.25 0
1 0.25 0
0.75 0.125 0
0.875 0.125 0
0.75 0.25 0
0.875 0.25 0
0.75 0.25 0
0.875 0.25 0
0.75 0.375 0
0.875 0.375 0
0.875 0.25 0
1 0.25 0
0.875 0.375 0
1 0.375 0
0.875 0.375 0
1 0.375 0
0.875 0.5 0
1 0.5 0
0.75 0.375 0
0.875 0.375 0
0.75 0.5 0
0.875 0.5 0
0.5 0.25 0
0.625 0.25 0
0.5 0.375 0
0.625 0.375 0
0.625 0.25 0
0.75 0.25 0
0.625 0.375 0
0.75 0.375 0
0.625 0.375 0
0.75 0.375 0
0.625 0.5 0
0.75 0.5 0
0.5 0.375 0
0.625 0.375 0
0.5 0.5 0
0.625 0.5 0
0.5 0.5 0
0.625 0.5 0
0.5 0.625 0
0.625 0.625 0
0.625 0.5 0
0.75 0.5 0
0.625 0.625 0
0.75 0.625 0
0.625 0.625 0
0.75 0.625 0
0.625 0.75 0
0.75 0.75 0
0.5 0.625 0
0.625 0.625 0
0.5 0.75 0
0.625 0.75 0
0.75 0.5 0
0.875 0.5 0
0.75 0.625 0
0.875 0.625 0
0.875 0.5 0
1 0.5 0
0.875 0.625 0
1 0.625 0
0.875 0.625 0
1 0.625 0
0.875 0.75 0
1 0.75 0
0.75 0.625 0
0.875 0.625 0
0.75 0.75 0
0.875 0.75 0
0.75 0.75 0
0.875 0.75 0
0.75 0.875 0
0.875 0.875 0
0.875 0.75 0
1 0.75 0
0.875 0.875 0
1 0.875 0
0.875 0.875 0
1 0.875 0
0.875 1 0
1 1 0
0.75 0.875 0
0.875 0.875 0
0.75 1 0
0.875 1 0
0.5 0.75 0
0.625 0.75 0
0.5 0.875 0
0.625 0.875 0
0.625 0.75 0
0.75 0.75 0
0.625 0.875 0
0.75 0.875 0
0.625 0.875 0
0.75 0.875 0
0.625 1 0
0.75 1 0
0.5 0.875 0
0.625 0.875 0
0.5 1 0
0.625 1 0
0 0.5 0
0.125 0.5 0
0 0.625 0
0.125 0.625 0
0.125 0.5 0
0.25 0.5 0
0.125 0.625 0
0.25 0.625 0
0.125 0.625 0
0.25 0.625 0
0.125 0.75 0
0.25 0.75 0
0 0.625 0
0.125 0.625 0
0 0.75 0
0.125 0.75 0
0.25 0.5 0
0.375 0.5 0
0.25 0.625 0
0.375 0.625 0
0.375 0.5 0
0.5 0.5 0
0.375 0.625 0
0.5 0.625 0
0.375 0.625 0
0.5 0.625 0
0.375 0.75 0
0.5 0.75 0
0.25 0.625 0
0.375 0.625 0
0.25 0.75 0
0.375 0.75 0
0.25 0.75 0
0.375 0.75 0
0.25 0.875 0
0.375 0.875 0
0.375 0.75 0
0.5 0.75 0
0.375 0.875 0
0.5 0.875 0
0.375 0.875 0
0.5 0.875 0
0.375 1 0
0.5 1 0
0.25 0.875 0
0.375 0.875 0
0.25 1 0
0.375 1 0
0 0.75 0
0.125 0.75 0
0 0.875 0
0.125 0.875 0
0.125 0.75 0
0.25 0.75 0
0.125 0.875 0
0.25 0.875 0
0.125 0.875 0
0.25 0.875 0
0.125 1 0
0.25 1 0
0 0.875 0
0.125 0.875 0
0 1 0
0.125 1 0
1 0 0
1.125 0 0
1 0.125 0
1.125 0.125 0
1.125 0 0
1.25 0 0
1.125 0.125 0
1.25 0.125 0
1.125 0.125 0
1.25 0.125 0
1.125 0.25 0
1.25 0.25 0
1 0.125 0
1.125 0.125 0
1 0.25 0
1.125 0.25 0
1.25 0 0
1.375 0 0
1.25 0.125 0
1.375 0.125 0
1.375 0 0
1.5 0 0
1.375 0.125 0
1.5 0.125 0
1.375 0.125 0
1.5 0.125 0
1.375 0.25 0
1.5 0.25 0
1.25 0.125 0
1.375 0.125 0
1.25 0.25 0
1.375 0.25 0
1.25 0.25 0
1.375 0.25 0
1.25 0.375 0
1.375 0.375 0
1.375 0.25 0
1.5 0.25 0
1.375 0.375 0
1.5 0.375 0
1.375 0.375 0
1.5 0.375 0
1.375 0.5 0
1.5 0.5 0
1.25 0.375 0
1.375 0.375 0
1.25 0.5 0
1.375 0.5 0
1 0.25 0
1.125 0.25 0
1 0.375 0
1.125 0.375 0
1.125 0.25 0
1.25 0.25 0
1.125 0.375 0
1.25 0.375 0
1.125 0.375 0
1.25 0.375 0
1.125 0.5 0
1.25 0.5 0
1 0.375 0
1.125 0.375 0
1 0.5 0
1.125 0.5 0
1.5 0 0
1.625 0 0
1.5 0.125 0
1.625 0.125 0
1.625 0 0
1.75 0 0
1.625 0.125 0
1.75 0.125 0
1.625 0.125 0
1.75 0.125 0
1.625 0.25 0
1.75 0.25 0
1.5 0.125 0
1.625 0.125 0
1.5 0.25 0
1.625 0.25 0
1.75 0 0
1.875 0 0
1.75 0.125 0
1.875 0.125 0
1.875 0 0
2 0 0
1.875 0.125 0
2 0.125 0
1.875 0.125 0
2 0.125 0
1.875 0.25 0
2 0.25 0
1.75 0.125 0
1.875 0.125 0
1.75 0.25 0
1.875 0.25 0
1.75 0.25 0
1.875 0.25 0
1.75 0.375 0
1.875 0.375 0
1.875 0.25 0
2 0.25 0
1.875 0.375 0
2 0.375 0
1.875 0.375 0
2 0.375 0
1.875 0.5 0
2 0.5 0
1.75 0.375 0
1.875 0.375 0
1.75 0.5 0
1.875 0.5 0
1.5 0.25 0
1.625 0.25 0
1.5 0.375 0
1.625 0.375 0
1.625 0.25 0
1.75 0.25 0
1.625 0.375 0
1.75 0.375 0
1.625 0.375 0
1.75 0.375 0
1.625 0.5 0
1.75 0.5 0
1.5 0.375 0
1.625 0.375 0
1.5 0.5 0
1.625 0.5 0
1.5 0.5 0
1.625 0.5 0
1.5 0.625 0
1.625 0.625 0
1.625 0.5 0
1.75 0.5 0
1.625 0.625 0
1.75 0.625 0
1.625 0.625 0
1.75 0.625 0
1.625 0.75 0
1.75 0.75 0
1.5 0.625 0
1.625 0.625 0
1.5 0.75 0
1.625 0.75 0
1.75 0.5 0
1.875 0.5 0
1.75 0.625 0
1.875 0.625 0
1.875 0.5 0
2 0.5 0
1.875 0.625 0
2 0.625 0
1.875 0.625 0
2 0.625 0
1.875 0.75 0
2 0.75 0
1.75 0.625 0
1.875 0.625 0
1.75 0.75 0
1.875 0.75 0
1.75 0.75 0
1.875 0.75 0
1.75 0.875 0
1.875 0.875 0
1.875 0.75 0
2 0.75 0
1.875 0.875 0
2 0.875 0
1.875 0.875 0
2 0.875 0
1.875 1 0
2 1 0
1.75 0.875 0
1.875 0.875 0
1.75 1 0
1.875 1 0
1.5 0.75 0
1.625 0.75 0
1.5 0.875 0
1.625 0.875 0
1.625 0.75 0
1.75 0.75 0
1.625 0.875 0
1.75 0.875 0
1.625 0.875 0
1.75 0.875 0
1.625 1 0
1.75 1 0
1.5 0.875 0
1.625 0.875 0
1.5 1 0
1.625 1 0
1 0.5 0
1.125 0.5 0
1 0.625 0
1.125 0.625 0
1.125 0.5 0
1.25 0.5 0
1.125 0.625 0
1.25 0.625 0
1.125 0.625 0
1.25 0.625 0
1.125 0.75 0
1.25 0.75 0
1 0.625 0
1.125 0.625 0
1 0.75 0
1.125 0.75 0
1.25 0.5 0
1.375 0.5 0
1.25 0.625 0
1.375 0.625 0
1.375 0.5 0
1.5 0.5 0
1.375 0.625 0
1.5 0.625 0
1.375 0.625 0
1.5 0.625 0
1.375 0.75 0
1.5 0.75 0
1.25 0.625 0
1.375 0.625 0
1.25 0.75 0
1.375 0.75 0
1.25 0.75 0
1.375 0.75 0
1.25 0.875 0
1.375 0.875 0
1.375 0.75 0
1.5 0.75 0
1.375 0.875 0
1.5 0.875 0
1.375 0.875 0
1.5 0.875 0
1.375 1 0
1.5 1 0
1.25 0.875 0
1.375 0.875 0
1.25 1 0
1.375 1 0
1 0.75 0
1.125 0.75 0
1 0.875 0
1.125 0.875 0
1.125 0.75 0
1.25 0.75 0
1.125 0.875 0
1.25 0.875 0
1.125 0.875 0
1.25 0.875 0
1.125 1 0
1.25 1 0
1 0.875 0
1.125 0.875 0
1 1 0
1.125 1 0
2 0 0
2.125 0 0
2 0.125 0
2.125 0.125 0
2.125 0 0
2.25 0 0
2.125 0.125 0
2.25 0.125 0
2.125 0.125 0
2.25 0.125 0
2.125 0.25 0
2.25 0.25 0
2 0.125 0
2.125 0.125 0
2 0.25 0
2.125 0.25 0
2.25 0 0
2.375 0 0
2.25 0.125 0
2.375 0.125 0
2.375 0 0
2.5 0 0
2.375 0.125 0
2.5 0.125 0
2.375 0.125 0
2.5 0.125 0
2.375 0.25 0
2.5 0.25 0
2.25 0.125 0
2.375 0.125 0
2.25 0.25 0
2.375 0.25 0
2.25 0.25 0
2.375 0.25 0
2.25 0.375 0
2.375 0.375 0
2.375 0.25 0
2.5 0.25 0
2.375 0.375 0
2.5 0.375 0
2.375 0.375 0
2.5 0.375 0
2.375 0.5 0
2.5 0.5 0
2.25 0.375 0
2.375 0.375 0
2.25 0.5 0
2.375 0.5 0
2 0.25 0
2.125 0.25 0
2 0.375 0
2.125 0.375 0
2.125 0.25 0
2.25 0.25 0
2.125 0.375 0
2.25 0.375 0
2.125 0.375 0
2.25 0.375 0
2.125 0.5 0
2.25 0.5 0
2 0.375 0
2.125 0.375 0
2 0.5 0
2.125 0.5 0
2.5 0 0
2.625 0 0
2.5 0.125 0
2.625 0.125 0
2.625 0 0
2.75 0 0
2.625 0.125 0
2.75 0.125 0
2.625 0.125 0
2.75 0.125 0
2.625 0.25 0
2.75 0.25 0
2.5 0.125 0
2.625 0.125 0
2.5 0.25 0
2.625 0.25 0
2.75 0 0
2.875 0 0
2.75 0.125 0
2.875 0.125 0
2.875 0 0
3 0 0
2.875 0.125 0
3 0.125 0
2.875 0.125 0
3 0.125 0
2.875 0.25 0
3 0.25 0
2.75 0.125 0
2.875 0.125 0
2.75 0.25 0
2.875 0.25 0
2.75 0.25 0
2.875 0.25 0
2.75 0.375 0
2.875 0.375 0
2.875 0.25 0
3 0.25 0
2.875 0.375 0
3 0.375 0
2.875 0.375 0
3 0.375 0
2.875 0.5 0
3 0.5 0
2.75 0.375 0
2.875 0.375 0
2.75 0.5 0
2.875 0.5 0
2.5 0.25 0
2.625 0.25 0
2.5 0.375 0
2.625 0.375 0
2.625 0.25 0
2.75 0.25 0
2.625 0.375 0
2.75 0.375 0
2.625 0.375 0
2.75 0.375 0
2.625 0.5 0
2.75 0.5 0
2.5 0.375 0
2.625 0.375 0
2.5 0.5 0
2.625 0.5 0
2.5 0.5 0
2.625 0.5 0
2.5 0.625 0
2.625 0.625 0
2.625 0.5 0
2.75 0.5 0
2.625 0.625 0
2.75 0.625 0
2.625 0.625 0
2.75 0.625 0
2.625 0.75 0
2.75 0.75 0
2.5 0.625 0
2.625 0.625 0
2.5 0.75 0
2.625 0.75 0
2.75 0.5 0
2.875 0.5 0
2.75 0.625 0
2.875 0.625 0
2.875 0.5 0
3 0.5 0
2.875 0.625 0
3 0.625 0
2.875 0.625 0
3 0.625 0
2.875 0.75 0
3 0.75 0
2.75 0.625 0
2.875 0.625 0
2.75 0.75 0
2.875 0.75 0
2.75 0.75 0
2.875 0.75 0
2.75 0.875 0
2.875 0.875 0
2.875 0.75 0
3 0.75 0
2.875 0.875 0
3 0.875 0
2.875 0.875 0
3 0.875 0
2.875 1 0
3 1 0
2.75 0.875 0
2.875 0.875 0
2.75 1 0
2.875 1 0
2.5 0.75 0
2.625 0.75 0
2.5 0.875 0
2.625 0.875 0
2.625 0.75 0
2.75 0.75 0
2.625 0.875 0
2.75 0.875 0
2.625 0.875 0
2.75 0.875 0
2.625 1 0
2.75 1 0
2.5 0.875 0
2.625 0.875 0
2.5 1 0
2.625 1 0
2 0.5 0
2.125 0.5 0
2 0.625 0
2.125 0.625 0
2.125 0.5 0
2.25 0.5 0
2.125 0.625 0
2.25 0.625 0
2.125 0.625 0
2.25 0.625 0
2.125 0.75 0
2.25 0.75 0
2 0.625 0
2.125 0.625 0
2 0.75 0
2.125 0.75 0
2.25 0.5 0
2.375 0.5 0
2.25 0.625 0
2.375 0.625 0
2.375 0.5 0
2.5 0.5 0
2.375 0.625 0
2.5 0.625 0
2.375 0.625 0
2.5 0.625 0
2.375 0.75 0
2.5 0.75 0
2.25 0.625 0
2.375 0.625 0
2.25 0.75 0
2.375 0.75 0
2.25 0.75 0
2.375 0.75 0
2.25 0.875 0
2.375 0.875 0
2.375 0.75 0
2.5 0.75 0
2.375 0.875 0
2.5 0.875 0
2.375 0.875 0
2.5 0.875 0
2.375 1 0
2.5 1 0
2.25 0.875 0
2.375 0.875 0
2.25 1 0
2.375 1 0
2 0.75 0
2.125 0.75 0
2 0.875 0
2.125 0.875 0
2.125 0.75 0
2.25 0.75 0
2.125 0.875 0
2.25 0.875 0
2.125 0.875 0
2.25 0.875 0
2.125 1 0
2.25 1 0
2 0.875 0
2.125 0.875 0
2 1 0
2.125 1 0
3 0 0
3.125 0 0
3 0.125 0
3.125 0.125 0
3.125 0 0
3.25 0 0
3.125 0.125 0
3.25 0.125 0
3.125 0.125 0
3.25 0.125 0
3.125 0.25 0
3.25 0.25 0
3 0.125 0
3.125 0.125 0
3 0.25 0
3.125 0.25 0
3.25 0 0
3.375 0 0
3.25 0.125 0
3.375 0.125 0
3.375 0 0
3.5 0 0
3.375 0.125 0
3.5 0.125 0
3.375 0.125 0
3.5 0.125 0
3.375 0.25 0
3.5 0.25 0
3.25 0.125 0
3.375 0.125 0
3.25 0.25 0
3.375 0.25 0
3.25 0.25 0
3.375 0.25 0
3.25 0.375 0
3.375 0.375 0
3.375 0.25 0
3.5 0.25 0
3.375 0.375 0
3.5 0.375 0
3.375 0.375 0
3.5 0.375 0
3.375 0.5 0
3.5 0.5 0
3.25 0.375 0
3.375 0.375 0
3.25 0.5 0
[...]
<CellData Scalars="attribute">
<DataArray type="Int32" Name="attribute" format="ascii">
1
1
1
1
1
1
1
1
1
1
1
1
1
1
1
1
1
1
1
1
1
1
1
1
1
1
1
1
1
1
1
1
1
1
1
1
1
1
1
1
1
1
1
1
1
1
1
1
1
1
1
1
1
1
1
1
1
1
1
1
1
1
1
1
1
1
1
1
1
1
1
1
1
1
1
1
1
1
1
1
1
1
1
1
1
1
1
1
1
1
1
1
1
1
1
1
1
1
1
1
1
1
1
1
1
1
1
1
1
1
1
1
1
1
1
1
1
1
1
1
1
1
1
1
1
1
1
1
1
1
1
1
1
1
1
1
1
1
1
1
1
1
1
1
1
1
1
1
1
1
1
1
1
1
1
1
1
1
1
1
1
1
1
1
1
1
1
1
1
1
1
1
1
1
1
1
1
1
1
1
1
1
1
1
1
1
1
1
1
1
1
1
1
1
1
1
1
1
1
1
1
1
1
1
1
1
1
1
1
1
1
1
1
1
1
1
1
1
1
1
1
1
1
1
1
1
1
1
1
1
1
1
1
1
1
1
1
1
1
1
1
1
1
1
1
1
1
1
1
1
1
1
1
1
1
1
2
2
2
2
2
2
2
2
2
2
2
2
2
2
2
2
2
2
2
2
2
2
2
2
2
2
2
2
2
2
2
2
2
2
2
2
2
2
2
2
2
2
2
2
2
2
2
2
2
2
2
2
2
2
2
2
2
2
2
2
2
2
2
2
2
2
2
2
2
2
2
2
2
2
2
2
2
2
2
2
2
2
2
2
2
2
2
2
2
2
2
2
2
2
2
2
2
2
2
2
2
2
2
2
2
2
2
2
2
2
2
2
2
2
2
2
2
2
2
2
2
2
2
2
2
2
2
2
2
2
2
2
2
2
2
2
2
2
2
2
2
2
2
2
2
2
2
2
2
2
2
2
2
2
2
2
2
2
2
2
2
2
2
2
2
2
2
2
2
2
2
2
2
2
2
2
2
2
2
2
2
2
2
2
2
2
2
2
2
2
2
2
2
2
2
2
2
2
2
2
2
2
2
2
2
2
2
2
2
2
2
2
2
2
2
2
2
2
2
2
2
2
2
2
2
2
2
2
2
2
2
2
2
2
2
2
2
2
2
2
2
2
2
2
2
2
2
2
2
2
2
2
2
2
2
2
</DataArray>
</CellData>
<PointData >
<DataArray type="Float64" Name="Pressure" NumberOfComponents="1" format="ascii" >
-0.000491029
-7.51008e-07
-0.000803527
-1.2432e-06
-7.51008e-07
4.61611e-11
-1.2432e-06
7.99407e-11
-1.2432e-06
7.99407e-11
-8.34621e-07
5.42864e-11
-0.000803527
-1.2432e-06
-0.000535692
-8.34621e-07
4.61611e-11
-1.79885e-15
7.99407e-11
-3.21187e-15
-1.79885e-15
7.11634e-20
-3.21187e-15
1.31738e-19
-3.21187e-15
1.31738e-19
-2.23645e-15
9.42162e-20
7.99407e-11
-3.21187e-15
5.42864e-11
-2.23645e-15
5.42864e-11
-2.23645e-15
2.782e-11
-1.1428e-15
-2.23645e-15
9.42162e-20
-1.1428e-15
4.81943e-20
-1.1428e-15
4.81943e-20
-3.78374e-17
1.52905e-21
2.782e-11
-1.1428e-15
9.81115e-13
-3.78374e-17
-0.000535692
-8.34621e-07
-0.000267854
-4.23817e-07
-8.34621e-07
5.42864e-11
-4.23817e-07
2.782e-11
-4.23817e-07
2.782e-11
-9.38715e-09
9.81115e-13
-0.000267854
-4.23817e-07
-1.15501e-08
-9.38715e-09
7.11634e-20
-1.46077e-24
1.31738e-19
-2.80273e-24
-1.46077e-24
5.20967e-29
-2.80273e-24
1.00505e-28
-2.80273e-24
1.00505e-28
-2.07644e-24
7.55231e-29
1.31738e-19
-2.80273e-24
9.42162e-20
-2.07644e-24
5.20967e-29
-4.52753e-34
1.00505e-28
-9.63328e-34
-4.52753e-34
2.48566e-38
-9.63328e-34
4.86687e-38
-9.63328e-34
4.86687e-38
-7.79047e-34
3.76886e-38
1.00505e-28
-9.63328e-34
7.55231e-29
-7.79047e-34
7.55231e-29
-7.79047e-34
3.92638e-29
-4.10787e-34
-7.79047e-34
3.76886e-38
-4.10787e-34
2.00149e-38
-4.10787e-34
2.00149e-38
-1.18454e-35
5.09613e-40
3.92638e-29
-4.10787e-34
1.12624e-30
-1.18454e-35
9.42162e-20
-2.07644e-24
4.81943e-20
-1.06869e-24
-2.07644e-24
7.55231e-29
-1.06869e-24
3.92638e-29
-1.06869e-24
3.92638e-29
-3.26446e-26
1.12624e-30
4.81943e-20
-1.06869e-24
1.52905e-21
-3.26446e-26
1.52905e-21
-3.26446e-26
-4.57872e-20
1.01781e-24
-3.26446e-26
1.12624e-30
1.01781e-24
-3.75455e-29
1.01781e-24
-3.75455e-29
2.06899e-24
-7.53234e-29
-4.57872e-20
1.01781e-24
-9.37732e-20
2.06899e-24
1.12624e-30
-1.18454e-35
-3.75455e-29
3.9284e-34
-1.18454e-35
5.09613e-40
3.9284e-34
-1.92594e-38
3.9284e-34
-1.92594e-38
7.76943e-34
-3.76275e-38
-3.75455e-29
3.9284e-34
-7.53234e-29
7.76943e-34
-7.53234e-29
7.76943e-34
-1.02109e-28
9.78004e-34
7.76943e-34
-3.76275e-38
9.78004e-34
-4.93496e-38
9.78004e-34
-4.93496e-38
4.62637e-34
-2.53378e-38
-1.02109e-28
9.78004e-34
-5.32694e-29
4.62637e-34
-9.37732e-20
2.06899e-24
-1.34086e-19
2.85045e-24
2.06899e-24
-7.53234e-29
2.85045e-24
-1.02109e-28
2.85045e-24
-1.02109e-28
1.49623e-24
-5.32694e-29
-1.34086e-19
2.85045e-24
-7.30348e-20
1.49623e-24
-1.15501e-08
-9.38715e-09
0.000267835
4.08667e-07
-9.38715e-09
9.81115e-13
4.08667e-07
-2.62401e-11
4.08667e-07
-2.62401e-11
8.30345e-07
-5.38523e-11
0.000267835
4.08667e-07
0.000535687
8.30345e-07
9.81115e-13
-3.78374e-17
-2.62401e-11
1.08248e-15
-3.78374e-17
1.52905e-21
1.08248e-15
-4.57872e-20
1.08248e-15
-4.57872e-20
2.22242e-15
-9.37732e-20
-2.62401e-11
1.08248e-15
-5.38523e-11
2.22242e-15
-5.38523e-11
2.22242e-15
-8.14205e-11
3.27166e-15
2.22242e-15
-9.37732e-20
3.27166e-15
-1.34086e-19
3.27166e-15
-1.34086e-19
1.84974e-15
-7.30348e-20
-8.14205e-11
3.27166e-15
-4.76765e-11
1.84974e-15
0.000535687
8.30345e-07
0.000803544
1.2572e-06
8.30345e-07
-5.38523e-11
1.2572e-06
-8.14205e-11
1.2572e-06
-8.14205e-11
7.6583e-07
-4.76765e-11
0.000803544
1.2572e-06
0.000491048
7.6583e-07
2.48566e-38
3.72013e-44
4.86687e-38
1.42253e-44
3.72013e-44
9.32156e-48
1.42253e-44
1.80883e-47
1.42253e-44
1.80883e-47
-2.31362e-44
1.41165e-47
4.86687e-38
1.42253e-44
3.76886e-38
-2.31362e-44
9.32156e-48
8.51824e-53
1.80883e-47
1.44185e-52
8.51824e-53
2.93452e-57
1.44185e-52
5.5919e-57
1.44185e-52
5.5919e-57
9.95356e-53
4.34034e-57
1.80883e-47
1.44185e-52
1.41165e-47
9.95356e-53
1.41165e-47
9.95356e-53
7.60805e-48
5.18844e-53
9.95356e-53
4.34034e-57
5.18844e-53
2.35337e-57
5.18844e-53
2.35337e-57
8.72595e-55
4.47628e-59
7.60805e-48
5.18844e-53
1.68548e-49
8.72595e-55
3.76886e-38
-2.31362e-44
2.00149e-38
-1.58139e-44
-2.31362e-44
1.41165e-47
-1.58139e-44
7.60805e-48
-1.58139e-44
7.60805e-48
-9.04828e-46
1.68548e-49
2.00149e-38
-1.58139e-44
5.09613e-40
-9.04828e-46
2.93452e-57
3.76268e-62
5.5919e-57
6.74518e-62
3.76268e-62
7.61952e-67
6.74518e-62
1.43109e-66
6.74518e-62
1.43109e-66
4.95587e-62
1.10316e-66
5.5919e-57
6.74518e-62
4.34034e-57
4.95587e-62
7.61952e-67
1.02701e-71
1.43109e-66
1.87526e-71
1.02701e-71
1.58911e-76
1.87526e-71
2.96014e-76
1.87526e-71
2.96014e-76
1.40871e-71
2.27313e-76
1.43109e-66
1.87526e-71
1.10316e-66
1.40871e-71
1.10316e-66
1.40871e-71
5.98965e-67
7.57373e-72
1.40871e-71
2.27313e-76
7.57373e-72
1.23447e-76
7.57373e-72
1.23447e-76
1.0893e-73
1.7292e-78
5.98965e-67
7.57373e-72
9.75705e-69
1.0893e-73
4.34034e-57
4.95587e-62
2.35337e-57
2.63886e-62
4.95587e-62
1.10316e-66
2.63886e-62
5.98965e-67
2.63886e-62
5.98965e-67
4.24054e-64
9.75705e-69
2.35337e-57
2.63886e-62
4.47628e-59
4.24054e-64
4.47628e-59
4.24054e-64
-2.28895e-57
-2.57885e-62
4.24054e-64
9.75705e-69
-2.57885e-62
-5.8502e-67
-2.57885e-62
-5.8502e-67
-4.95748e-62
-1.10278e-66
-2.28895e-57
-2.57885e-62
-4.33761e-57
-4.95748e-62
9.75705e-69
1.0893e-73
-5.8502e-67
-7.41967e-72
1.0893e-73
1.7292e-78
-7.41967e-72
-1.20987e-76
-7.41967e-72
-1.20987e-76
-1.40893e-71
-2.27273e-76
-5.8502e-67
-7.41967e-72
-1.10278e-66
-1.40893e-71
-1.10278e-66
-1.40893e-71
-1.44426e-66
-1.89149e-71
-1.40893e-71
-2.27273e-76
-1.89149e-71
-2.98391e-76
-1.89149e-71
-2.98391e-76
-1.03858e-71
-1.60597e-76
-1.44426e-66
-1.89149e-71
-7.7128e-67
-1.03858e-71
-4.33761e-57
-4.95748e-62
-5.65096e-57
-6.81208e-62
-4.95748e-62
-1.10278e-66
-6.81208e-62
-1.44426e-66
-6.81208e-62
-1.44426e-66
-3.81095e-62
-7.7128e-67
-5.65096e-57
-6.81208e-62
-2.9762e-57
-3.81095e-62
5.09613e-40
-9.04828e-46
-1.92594e-38
1.43974e-44
-9.04828e-46
1.68548e-49
1.43974e-44
-7.36272e-48
1.43974e-44
-7.36272e-48
2.26818e-44
-1.41019e-47
-1.92594e-38
1.43974e-44
-3.76275e-38
2.26818e-44
1.68548e-49
8.72595e-55
-7.36272e-48
-5.06556e-53
8.72595e-55
4.47628e-59
-5.06556e-53
-2.28895e-57
-5.06556e-53
-2.28895e-57
-9.96275e-53
-4.33761e-57
-7.36272e-48
-5.06556e-53
-1.41019e-47
-9.96275e-53
-1.41019e-47
-9.96275e-53
-1.83082e-47
-1.45812e-52
-9.96275e-53
-4.33761e-57
-1.45812e-52
-5.65096e-57
-1.45812e-52
-5.65096e-57
-8.64039e-53
-2.9762e-57
-1.83082e-47
-1.45812e-52
-9.47608e-48
-8.64039e-53
-3.76275e-38
2.26818e-44
-4.93496e-38
-1.43095e-44
2.26818e-44
-1.41019e-47
-1.43095e-44
-1.83082e-47
-1.43095e-44
-1.83082e-47
-3.75724e-44
-9.47608e-48
-4.93496e-38
-1.43095e-44
-2.53378e-38
-3.75724e-44
1.58911e-76
2.0307e-81
2.96014e-76
3.73524e-81
2.0307e-81
2.6436e-86
3.73524e-81
4.9043e-86
3.73524e-81
4.9043e-86
2.8357e-81
3.7616e-86
2.96014e-76
3.73524e-81
2.27313e-76
2.8357e-81
2.6436e-86
3.09388e-91
4.9043e-86
5.70795e-91
3.09388e-91
3.53245e-96
5.70795e-91
6.54036e-96
5.70795e-91
6.54036e-96
4.35744e-91
5.01717e-96
4.9043e-86
5.70795e-91
3.7616e-86
4.35744e-91
3.7616e-86
4.35744e-91
2.04327e-86
2.36182e-91
4.35744e-91
5.01717e-96
2.36182e-91
2.72614e-96
2.36182e-91
2.72614e-96
2.62646e-93
2.8642e-98
2.04327e-86
2.36182e-91
2.4738e-88
2.62646e-93
2.27313e-76
2.8357e-81
1.23447e-76
1.53257e-81
2.8357e-81
3.7616e-86
1.53257e-81
2.04327e-86
1.53257e-81
2.04327e-86
1.94362e-83
2.4738e-88
1.23447e-76
1.53257e-81
1.7292e-78
1.94362e-83
3.53245e-96
3.75471e-101
6.54036e-96
6.93497e-101
3.75471e-101
3.83793e-106
6.93497e-101
7.09875e-106
6.93497e-101
7.09875e-106
5.31064e-101
5.44892e-106
6.54036e-96
6.93497e-101
5.01717e-96
5.31064e-101
3.83793e-106
3.70904e-111
7.09875e-106
6.85276e-111
3.70904e-111
3.4346e-116
6.85276e-111
6.34889e-116
6.85276e-111
6.34889e-116
5.25744e-111
4.87676e-116
7.09875e-106
6.85276e-111
5.44892e-106
5.25744e-111
5.44892e-106
5.25744e-111
2.96162e-106
2.85656e-111
5.25744e-111
4.87676e-116
2.85656e-111
2.6512e-116
2.85656e-111
2.6512e-116
2.42888e-113
2.11276e-118
2.96162e-106
2.85656e-111
2.70755e-108
2.42888e-113
5.01717e-96
5.31064e-101
2.72614e-96
2.88303e-101
5.31064e-101
5.44892e-106
2.88303e-101
2.96162e-106
2.88303e-101
2.96162e-106
2.80474e-103
2.70755e-108
2.72614e-96
2.88303e-101
2.8642e-98
2.80474e-103
2.8642e-98
2.80474e-103
-2.68556e-96
-2.84337e-101
2.80474e-103
2.70755e-108
-2.84337e-101
-2.92328e-106
-2.84337e-101
-2.92328e-106
-5.31071e-101
-5.44878e-106
-2.68556e-96
-2.84337e-101
-5.01695e-96
-5.31071e-101
2.70755e-108
2.42888e-113
-2.92328e-106
-2.82221e-111
2.42888e-113
2.11276e-118
-2.82221e-111
-2.6213e-116
-2.82221e-111
-2.6213e-116
-5.25743e-111
-4.87666e-116
-2.92328e-106
-2.82221e-111
-5.44878e-106
-5.25743e-111
-5.44878e-106
-5.25743e-111
-7.13668e-106
-6.887e-111
-5.25743e-111
-4.87666e-116
-6.887e-111
-6.37848e-116
-6.887e-111
-6.37848e-116
-3.73328e-111
-3.45556e-116
-7.13668e-106
-6.887e-111
-3.8648e-106
-3.73328e-111
-5.01695e-96
-5.31071e-101
-6.5804e-96
-6.97473e-101
-5.31071e-101
-5.44878e-106
-6.97473e-101
-7.13668e-106
-6.97473e-101
-7.13668e-106
-3.78286e-101
-3.8648e-106
-6.5804e-96
-6.97473e-101
-3.56083e-96
-3.78286e-101
1.7292e-78
1.94362e-83
-1.20987e-76
-1.5051e-81
1.94362e-83
2.4738e-88
-1.5051e-81
-2.00817e-86
-1.5051e-81
-2.00817e-86
-2.83592e-81
-3.76127e-86
-1.20987e-76
-1.5051e-81
-2.27273e-76
-2.83592e-81
2.4738e-88
2.62646e-93
-2.00817e-86
-2.32469e-91
2.62646e-93
2.8642e-98
-2.32469e-91
-2.68556e-96
-2.32469e-91
-2.68556e-96
-4.35759e-91
-5.01695e-96
-2.00817e-86
-2.32469e-91
-3.76127e-86
-4.35759e-91
-3.76127e-86
-4.35759e-91
-4.93869e-86
-5.74549e-91
-4.35759e-91
-5.01695e-96
-5.74549e-91
-6.5804e-96
-5.74549e-91
-6.5804e-96
-3.12047e-91
-3.56083e-96
-4.93869e-86
-5.74549e-91
-2.66799e-86
-3.12047e-91
-2.27273e-76
-2.83592e-81
-2.98391e-76
-3.76343e-81
-2.83592e-81
-3.76127e-86
-3.76343e-81
-4.93869e-86
-3.76343e-81
-4.93869e-86
-2.0507e-81
-2.66799e-86
-2.98391e-76
-3.76343e-81
-1.60597e-76
-2.0507e-81
3.4346e-116
3.0302e-121
6.34889e-116
5.59829e-121
3.0302e-121
2.56222e-126
5.59829e-121
4.73426e-126
5.59829e-121
4.73426e-126
4.30006e-121
3.63881e-126
6.34889e-116
5.59829e-121
4.87676e-116
4.30006e-121
2.56222e-126
2.07337e-131
4.73426e-126
3.8298e-131
2.07337e-131
1.61038e-136
3.8298e-131
2.97448e-136
3.8298e-131
2.97448e-136
2.94399e-131
2.2874e-136
4.73426e-126
3.8298e-131
3.63881e-126
2.94399e-131
3.63881e-126
2.94399e-131
1.97844e-126
1.60056e-131
2.94399e-131
2.2874e-136
1.60056e-131
1.24371e-136
1.60056e-131
1.24371e-136
1.03926e-133
7.55496e-139
1.97844e-126
1.60056e-131
1.37594e-128
1.03926e-133
4.87676e-116
4.30006e-121
2.6512e-116
2.33738e-121
4.30006e-121
3.63881e-126
2.33738e-121
1.97844e-126
2.33738e-121
1.97844e-126
1.73665e-123
1.37594e-128
2.6512e-116
2.33738e-121
2.11276e-118
1.73665e-123
1.61038e-136
1.20059e-141
2.97448e-136
2.21711e-141
1.20059e-141
8.60642e-147
2.21711e-141
1.58917e-146
2.21711e-141
1.58917e-146
1.70524e-141
1.22259e-146
2.97448e-136
2.21711e-141
2.2874e-136
1.70524e-141
8.60642e-147
5.93542e-152
1.58917e-146
1.09579e-151
5.93542e-152
3.94262e-157
1.09579e-151
7.27801e-157
1.09579e-151
7.27801e-157
8.43142e-152
5.60095e-157
1.58917e-146
1.09579e-151
1.22259e-146
8.43142e-152
1.22259e-146
8.43142e-152
6.64734e-147
4.58405e-152
8.43142e-152
5.60095e-157
4.58405e-152
3.0451e-157
4.58405e-152
3.0451e-157
2.27523e-154
1.41378e-159
6.64734e-147
4.58405e-152
3.52919e-149
2.27523e-154
2.2874e-136
1.70524e-141
1.24371e-136
9.27139e-142
1.70524e-141
1.22259e-146
9.27139e-142
6.64734e-147
9.27139e-142
6.64734e-147
5.26236e-144
3.52919e-149
1.24371e-136
9.27139e-142
7.55496e-139
5.26236e-144
7.55496e-139
5.26236e-144
-1.23301e-136
-9.19687e-142
5.26236e-144
3.52919e-149
-9.19687e-142
-6.59734e-147
-9.19687e-142
-6.59734e-147
-1.7052e-141
-1.22256e-146
-1.23301e-136
-9.19687e-142
-2.28735e-136
-1.7052e-141
3.52919e-149
2.27523e-154
-6.59734e-147
-4.55181e-152
2.27523e-154
1.41378e-159
-4.55181e-152
-3.02506e-157
-4.55181e-152
-3.02506e-157
-8.43117e-152
-5.60077e-157
-6.59734e-147
-4.55181e-152
-1.22256e-146
-8.43117e-152
-1.22256e-146
-8.43117e-152
-1.59408e-146
-1.09895e-151
-8.43117e-152
-5.60077e-157
-1.09895e-151
-7.29761e-157
-1.09895e-151
-7.29761e-157
-5.95781e-152
-3.95651e-157
-1.59408e-146
-1.09895e-151
-8.6412e-147
-5.95781e-152
-2.28735e-136
-1.7052e-141
-2.98502e-136
-2.22445e-141
-1.7052e-141
-1.22256e-146
-2.22445e-141
-1.59408e-146
-2.22445e-141
-1.59408e-146
-1.20579e-141
-8.6412e-147
-2.98502e-136
-2.22445e-141
-1.61785e-136
-1.20579e-141
2.11276e-118
1.73665e-123
-2.6213e-116
-2.31281e-121
1.73665e-123
1.37594e-128
-2.31281e-121
-1.95896e-126
-2.31281e-121
-1.95896e-126
-4.30001e-121
-3.63873e-126
-2.6213e-116
-2.31281e-121
-4.87666e-116
-4.30001e-121
1.37594e-128
1.03926e-133
-1.95896e-126
-1.58585e-131
1.03926e-133
7.55496e-139
-1.58585e-131
-1.23301e-136
-1.58585e-131
-1.23301e-136
-2.94393e-131
-2.28735e-136
-1.95896e-126
-1.58585e-131
-3.63873e-126
-2.94393e-131
-3.63873e-126
-2.94393e-131
-4.7535e-126
-3.84434e-131
-2.94393e-131
-2.28735e-136
-3.84434e-131
-2.98502e-136
-3.84434e-131
-2.98502e-136
-2.08367e-131
-1.61785e-136
-4.7535e-126
-3.84434e-131
-2.57585e-126
-2.08367e-131
-4.87666e-116
-4.30001e-121
-6.37848e-116
-5.62267e-121
-4.30001e-121
-3.63873e-126
-5.62267e-121
-4.7535e-126
-5.62267e-121
-4.7535e-126
-3.04747e-121
-2.57585e-126
-6.37848e-116
-5.62267e-121
-3.45556e-116
-3.04747e-121
3.94262e-157
2.52419e-162
7.27801e-157
4.65896e-162
2.52419e-162
1.559e-167
4.65896e-162
2.87716e-167
4.65896e-162
2.87716e-167
3.58585e-162
2.21474e-167
7.27801e-157
4.65896e-162
5.60095e-157
3.58585e-162
1.559e-167
9.29501e-173
2.87716e-167
1.7152e-172
9.29501e-173
5.3536e-178
1.7152e-172
9.87786e-178
1.7152e-172
9.87786e-178
1.32043e-172
7.60514e-178
2.87716e-167
1.7152e-172
2.21474e-167
1.32043e-172
2.21474e-167
1.32043e-172
1.20399e-167
7.17787e-173
1.32043e-172
7.60514e-178
7.17787e-173
4.13396e-178
7.17787e-173
4.13396e-178
2.72769e-175
1.46999e-180
1.20399e-167
7.17787e-173
4.89079e-170
2.72769e-175
5.60095e-157
3.58585e-162
3.0451e-157
1.94944e-162
3.58585e-162
2.21474e-167
1.94944e-162
1.20399e-167
1.94944e-162
1.20399e-167
8.46452e-165
4.89079e-170
3.0451e-157
1.94944e-162
1.41378e-159
8.46452e-165
5.3536e-178
2.98059e-183
9.87786e-178
5.49887e-183
2.98059e-183
1.60504e-188
5.49887e-183
2.96084e-188
5.49887e-183
2.96084e-188
4.23402e-183
2.27996e-188
9.87786e-178
5.49887e-183
7.60514e-178
4.23402e-183
1.60504e-188
8.36444e-194
2.96084e-188
1.54285e-193
8.36444e-194
4.22068e-199
1.54285e-193
7.78448e-199
1.54285e-193
7.78448e-199
1.18813e-193
5.99511e-199
2.96084e-188
1.54285e-193
2.27996e-188
1.18813e-193
2.27996e-188
1.18813e-193
1.2392e-188
6.4574e-194
1.18813e-193
5.99511e-199
6.4574e-194
3.25814e-199
6.4574e-194
3.25814e-199
1.88241e-196
8.8919e-202
1.2392e-188
6.4574e-194
3.85929e-191
1.88241e-196
7.60514e-178
4.23402e-183
4.13396e-178
2.30139e-183
4.23402e-183
2.27996e-188
2.30139e-183
1.2392e-188
2.30139e-183
1.2392e-188
7.65781e-186
3.85929e-191
4.13396e-178
2.30139e-183
1.46999e-180
7.65781e-186
1.46999e-180
7.65781e-186
-4.11309e-178
-2.29051e-183
7.65781e-186
3.85929e-191
-2.29051e-183
-1.23372e-188
-2.29051e-183
-1.23372e-188
-4.23385e-183
-2.27986e-188
-4.11309e-178
-2.29051e-183
-7.60484e-178
-4.23385e-183
3.85929e-191
1.88241e-196
-1.23372e-188
-6.43063e-194
1.88241e-196
8.8919e-202
-6.43063e-194
-3.24548e-199
-6.43063e-194
-3.24548e-199
-1.18808e-193
-5.99484e-199
-1.23372e-188
-6.43063e-194
-2.27986e-188
-1.18808e-193
-2.27986e-188
-1.18808e-193
-2.96611e-188
-1.54541e-193
-1.18808e-193
-5.99484e-199
-1.54541e-193
-7.79657e-199
-1.54541e-193
-7.79657e-199
-8.38262e-194
-4.22924e-199
-2.96611e-188
-1.54541e-193
-1.60878e-188
-8.38262e-194
-7.60484e-178
-4.23385e-183
-9.89808e-178
-5.50937e-183
-4.23385e-183
-2.27986e-188
-5.50937e-183
-2.96611e-188
-5.50937e-183
-2.96611e-188
-2.98803e-183
-1.60878e-188
-9.89808e-178
-5.50937e-183
-5.36791e-178
-2.98803e-183
1.41378e-159
8.46452e-165
-3.02506e-157
-1.93744e-162
8.46452e-165
4.89079e-170
-1.93744e-162
-1.19705e-167
-1.93744e-162
-1.19705e-167
-3.58573e-162
-2.21466e-167
-3.02506e-157
-1.93744e-162
-5.60077e-157
-3.58573e-162
4.89079e-170
2.72769e-175
-1.19705e-167
-7.13916e-173
2.72769e-175
1.46999e-180
-7.13916e-173
-4.11309e-178
-7.13916e-173
-4.11309e-178
-1.32038e-172
-7.60484e-178
-1.19705e-167
-7.13916e-173
-2.21466e-167
-1.32038e-172
-2.21466e-167
-1.32038e-172
-2.88391e-167
-1.71896e-172
-1.32038e-172
-7.60484e-178
-1.71896e-172
-9.89808e-178
-1.71896e-172
-9.89808e-178
-9.32163e-173
-5.36791e-178
-2.88391e-167
-1.71896e-172
-1.56379e-167
-9.32163e-173
-5.60077e-157
-3.58573e-162
-7.29761e-157
-4.67068e-162
-3.58573e-162
-2.21466e-167
-4.67068e-162
-2.88391e-167
-4.67068e-162
-2.88391e-167
-2.53249e-162
-1.56379e-167
-7.29761e-157
-4.67068e-162
-3.95651e-157
-2.53249e-162
4.22068e-199
2.06316e-204
7.78448e-199
3.8049e-204
2.06316e-204
9.77436e-210
3.8049e-204
1.80245e-209
3.8049e-204
1.80245e-209
2.93045e-204
1.38828e-209
7.78448e-199
3.8049e-204
5.99511e-199
2.93045e-204
9.77436e-210
4.48984e-215
1.80245e-209
8.27892e-215
4.48984e-215
2.00047e-220
8.27892e-215
3.68846e-220
8.27892e-215
3.68846e-220
6.37684e-215
2.84115e-220
1.80245e-209
8.27892e-215
1.38828e-209
6.37684e-215
1.38828e-209
6.37684e-215
7.54411e-210
3.46511e-215
6.37684e-215
2.84115e-220
3.46511e-215
1.54379e-220
3.46511e-215
1.54379e-220
7.76669e-218
3.24156e-223
7.54411e-210
3.46511e-215
1.80533e-212
7.76669e-218
5.99511e-199
2.93045e-204
3.25814e-199
1.59252e-204
2.93045e-204
1.38828e-209
1.59252e-204
7.54411e-210
1.59252e-204
7.54411e-210
4.06945e-207
1.80533e-212
3.25814e-199
1.59252e-204
8.8919e-202
4.06945e-207
2.00047e-220
8.64872e-226
3.68846e-220
1.59454e-225
8.64872e-226
3.62941e-231
1.59454e-225
6.69101e-231
1.59454e-225
6.69101e-231
1.22829e-225
5.15432e-231
3.68846e-220
1.59454e-225
2.84115e-220
1.22829e-225
3.62941e-231
1.47883e-236
6.69101e-231
2.72615e-236
1.47883e-236
5.85232e-242
2.72615e-236
1.07878e-241
2.72615e-236
1.07878e-241
2.10011e-236
8.31074e-242
6.69101e-231
2.72615e-236
5.15432e-231
2.10011e-236
5.15432e-231
2.10011e-236
2.80047e-231
1.141e-236
2.10011e-236
8.31074e-242
1.141e-236
4.5151e-242
1.141e-236
4.5151e-242
1.97197e-239
7.31619e-245
2.80047e-231
1.141e-236
5.16345e-234
1.97197e-239
2.84115e-220
1.22829e-225
1.54379e-220
6.67384e-226
1.22829e-225
5.15432e-231
6.67384e-226
2.80047e-231
6.67384e-226
2.80047e-231
1.31302e-228
5.16345e-234
1.54379e-220
6.67384e-226
3.24156e-223
1.31302e-228
3.24156e-223
1.31302e-228
-1.53916e-220
-6.65509e-226
1.31302e-228
5.16345e-234
-6.65509e-226
-2.79309e-231
-6.65509e-226
-2.79309e-231
-1.22823e-225
-5.15405e-231
-1.53916e-220
-6.65509e-226
-2.84101e-220
-1.22823e-225
5.16345e-234
1.97197e-239
-2.79309e-231
-1.13818e-236
1.97197e-239
7.31619e-245
-1.13818e-236
-4.50462e-242
-1.13818e-236
-4.50462e-242
-2.1e-236
-8.3103e-242
-2.79309e-231
-1.13818e-236
-5.15405e-231
-2.1e-236
-5.15405e-231
-2.1e-236
-6.69786e-231
-2.72876e-236
-2.1e-236
-8.3103e-242
-2.72876e-236
-1.07974e-241
-2.72876e-236
-1.07974e-241
-1.48068e-236
-5.85912e-242
-6.69786e-231
-2.72876e-236
-3.63426e-231
-1.48068e-236
-2.84101e-220
-1.22823e-225
-3.6928e-220