<VTKFile type="UnstructuredGrid" version="0.1" byte_order="LittleEndian">
<UnstructuredGrid>
<Piece NumberOfPoints="2048" NumberOfCells="512">
<Points>
<DataArray type="Float64" NumberOfComponents="3" format="ascii">
0 0 0
0.125 0 0
0 0.125 0
0.125 0.125 0
0.125 0 0
0.25 0 0
0.125 0.125 0
0.25 0.125 0
0.125 0.125 0
0.25 0.125 0
0.125 0.25 0
0.25 0.25 0
0 0.125 0
0.125 0.125 0
0 0.25 0
0.125 0.25 0
0.25 0 0
0.375 0 0
0.25 0.125 0
0.375 0.125 0
0.375 0 0
0.5 0 0
0.375 0.125 0
0.5 0.125 0
0.375 0.125 0
0.5 0.125 0
0.375 0.25 0
0.5 0.25 0
0.25 0.125 0
0.375 0.125 0
0.25 0.25 0
0.375 0.25 0
0.25 0.25 0
0.375 0.25 0
0.25 0.375 0
0.375 0.375 0
0.375 0.25 0
0.5 0.25 0
0.375 0.375 0
0.5 0.375 0
0.375 0.375 0
0.5 0.375 0
0.375 0.5 0
0.5 0.5 0
0.25 0.375 0
0.375 0.375 0
0.25 0.5 0
0.375 0.5 0
0 0.25 0
0.125 0.25 0
0 0.375 0
0.125 0.375 0
0.125 0.25 0
0.25 0.25 0
0.125 0.375 0
0.25 0.375 0
0.125 0.375 0
0.25 0.375 0
0.125 0.5 0
0.25 0.5 0
0 0.375 0
0.125 0.375 0
0 0.5 0
0.125 0.5 0
0.5 0 0
0.625 0 0
0.5 0.125 0
0.625 0.125 0
0.625 0 0
0.75 0 0
0.625 0.125 0
0.75 0.125 0
0.625 0.125 0
0.75 0.125 0
0.625 0.25 0
0.75 0.25 0
0.5 0.125 0
0.625 0.125 0
0.5 0.25 0
0.625 0.25 0
0.75 0 0
0.875 0 0
0.75 0.125 0
0.875 0.125 0
0.875 0 0
1 0 0
0.875 0.125 0
1 0.125 0
0.875 0.125 0
1 0.125 0
0.875 0.25 0
1 0.25 0
0.75 0.125 0
0.875 0.125 0
0.75 0.25 0
0.875 0.25 0
0.75 0.25 0
0.875 0.25 0
0.75 0.375 0
0.875 0.375 0
0.875 0.25 0
1 0.25 0
0.875 0.375 0
1 0.375 0
0.875 0.375 0
1 0.375 0
0.875 0.5 0
1 0.5 0
0.75 0.375 0
0.875 0.375 0
0.75 0.5 0
0.875 0.5 0
0.5 0.25 0
0.625 0.25 0
0.5 0.375 0
0.625 0.375 0
0.625 0.25 0
0.75 0.25 0
0.625 0.375 0
0.75 0.375 0
0.625 0.375 0
0.75 0.375 0
0.625 0.5 0
0.75 0.5 0
0.5 0.375 0
0.625 0.375 0
0.5 0.5 0
0.625 0.5 0
0.5 0.5 0
0.625 0.5 0
0.5 0.625 0
0.625 0.625 0
0.625 0.5 0
0.75 0.5 0
0.625 0.625 0
0.75 0.625 0
0.625 0.625 0
0.75 0.625 0
0.625 0.75 0
0.75 0.75 0
0.5 0.625 0
0.625 0.625 0
0.5 0.75 0
0.625 0.75 0
0.75 0.5 0
0.875 0.5 0
0.75 0.625 0
0.875 0.625 0
0.875 0.5 0
1 0.5 0
0.875 0.625 0
1 0.625 0
0.875 0.625 0
1 0.625 0
0.875 0.75 0
1 0.75 0
0.75 0.625 0
0.875 0.625 0
0.75 0.75 0
0.875 0.75 0
0.75 0.75 0
0.875 0.75 0
0.75 0.875 0
0.875 0.875 0
0.875 0.75 0
1 0.75 0
0.875 0.875 0
1 0.875 0
0.875 0.875 0
1 0.875 0
0.875 1 0
1 1 0
0.75 0.875 0
0.875 0.875 0
0.75 1 0
0.875 1 0
0.5 0.75 0
0.625 0.75 0
0.5 0.875 0
0.625 0.875 0
0.625 0.75 0
0.75 0.75 0
0.625 0.875 0
0.75 0.875 0
0.625 0.875 0
0.75 0.875 0
0.625 1 0
0.75 1 0
0.5 0.875 0
0.625 0.875 0
0.5 1 0
0.625 1 0
0 0.5 0
0.125 0.5 0
0 0.625 0
0.125 0.625 0
0.125 0.5 0
0.25 0.5 0
0.125 0.625 0
0.25 0.625 0
0.125 0.625 0
0.25 0.625 0
0.125 0.75 0
0.25 0.75 0
0 0.625 0
0.125 0.625 0
0 0.75 0
0.125 0.75 0
0.25 0.5 0
0.375 0.5 0
0.25 0.625 0
0.375 0.625 0
0.375 0.5 0
0.5 0.5 0
0.375 0.625 0
0.5 0.625 0
0.375 0.625 0
0.5 0.625 0
0.375 0.75 0
0.5 0.75 0
0.25 0.625 0
0.375 0.625 0
0.25 0.75 0
0.375 0.75 0
0.25 0.75 0
0.375 0.75 0
0.25 0.875 0
0.375 0.875 0
0.375 0.75 0
0.5 0.75 0
0.375 0.875 0
0.5 0.875 0
0.375 0.875 0
0.5 0.875 0
0.375 1 0
0.5 1 0
0.25 0.875 0
0.375 0.875 0
0.25 1 0
0.375 1 0
0 0.75 0
0.125 0.75 0
0 0.875 0
0.125 0.875 0
0.125 0.75 0
0.25 0.75 0
0.125 0.875 0
0.25 0.875 0
0.125 0.875 0
0.25 0.875 0
0.125 1 0
0.25 1 0
0 0.875 0
0.125 0.875 0
0 1 0
0.125 1 0
1 0 0
1.125 0 0
1 0.125 0
1.125 0.125 0
1.125 0 0
1.25 0 0
1.125 0.125 0
1.25 0.125 0
1.125 0.125 0
1.25 0.125 0
1.125 0.25 0
1.25 0.25 0
1 0.125 0
1.125 0.125 0
1 0.25 0
1.125 0.25 0
1.25 0 0
1.375 0 0
1.25 0.125 0
1.375 0.125 0
1.375 0 0
1.5 0 0
1.375 0.125 0
1.5 0.125 0
1.375 0.125 0
1.5 0.125 0
1.375 0.25 0
1.5 0.25 0
1.25 0.125 0
1.375 0.125 0
1.25 0.25 0
1.375 0.25 0
1.25 0.25 0
1.375 0.25 0
1.25 0.375 0
1.375 0.375 0
1.375 0.25 0
1.5 0.25 0
1.375 0.375 0
1.5 0.375 0
1.375 0.375 0
1.5 0.375 0
1.375 0.5 0
1.5 0.5 0
1.25 0.375 0
1.375 0.375 0
1.25 0.5 0
1.375 0.5 0
1 0.25 0
1.125 0.25 0
1 0.375 0
1.125 0.375 0
1.125 0.25 0
1.25 0.25 0
1.125 0.375 0
1.25 0.375 0
1.125 0.375 0
1.25 0.375 0
1.125 0.5 0
1.25 0.5 0
1 0.375 0
1.125 0.375 0
1 0.5 0
1.125 0.5 0
1.5 0 0
1.625 0 0
1.5 0.125 0
1.625 0.125 0
1.625 0 0
1.75 0 0
1.625 0.125 0
1.75 0.125 0
1.625 0.125 0
1.75 0.125 0
1.625 0.25 0
1.75 0.25 0
1.5 0.125 0
1.625 0.125 0
1.5 0.25 0
1.625 0.25 0
1.75 0 0
1.875 0 0
1.75 0.125 0
1.875 0.125 0
1.875 0 0
2 0 0
1.875 0.125 0
2 0.125 0
1.875 0.125 0
2 0.125 0
1.875 0.25 0
2 0.25 0
1.75 0.125 0
1.875 0.125 0
1.75 0.25 0
1.875 0.25 0
1.75 0.25 0
1.875 0.25 0
1.75 0.375 0
1.875 0.375 0
1.875 0.25 0
2 0.25 0
1.875 0.375 0
2 0.375 0
1.875 0.375 0
2 0.375 0
1.875 0.5 0
2 0.5 0
1.75 0.375 0
1.875 0.375 0
1.75 0.5 0
1.875 0.5 0
1.5 0.25 0
1.625 0.25 0
1.5 0.375 0
1.625 0.375 0
1.625 0.25 0
1.75 0.25 0
1.625 0.375 0
1.75 0.375 0
1.625 0.375 0
1.75 0.375 0
1.625 0.5 0
1.75 0.5 0
1.5 0.375 0
1.625 0.375 0
1.5 0.5 0
1.625 0.5 0
1.5 0.5 0
1.625 0.5 0
1.5 0.625 0
1.625 0.625 0
1.625 0.5 0
1.75 0.5 0
1.625 0.625 0
1.75 0.625 0
1.625 0.625 0
1.75 0.625 0
1.625 0.75 0
1.75 0.75 0
1.5 0.625 0
1.625 0.625 0
1.5 0.75 0
1.625 0.75 0
1.75 0.5 0
1.875 0.5 0
1.75 0.625 0
1.875 0.625 0
1.875 0.5 0
2 0.5 0
1.875 0.625 0
2 0.625 0
1.875 0.625 0
2 0.625 0
1.875 0.75 0
2 0.75 0
1.75 0.625 0
1.875 0.625 0
1.75 0.75 0
1.875 0.75 0
1.75 0.75 0
1.875 0.75 0
1.75 0.875 0
1.875 0.875 0
1.875 0.75 0
2 0.75 0
1.875 0.875 0
2 0.875 0
1.875 0.875 0
2 0.875 0
1.875 1 0
2 1 0
1.75 0.875 0
1.875 0.875 0
1.75 1 0
1.875 1 0
1.5 0.75 0
1.625 0.75 0
1.5 0.875 0
1.625 0.875 0
1.625 0.75 0
1.75 0.75 0
1.625 0.875 0
1.75 0.875 0
1.625 0.875 0
1.75 0.875 0
1.625 1 0
1.75 1 0
1.5 0.875 0
1.625 0.875 0
1.5 1 0
1.625 1 0
1 0.5 0
1.125 0.5 0
1 0.625 0
1.125 0.625 0
1.125 0.5 0
1.25 0.5 0
1.125 0.625 0
1.25 0.625 0
1.125 0.625 0
1.25 0.625 0
1.125 0.75 0
1.25 0.75 0
1 0.625 0
1.125 0.625 0
1 0.75 0
1.125 0.75 0
1.25 0.5 0
1.375 0.5 0
1.25 0.625 0
1.375 0.625 0
1.375 0.5 0
1.5 0.5 0
1.375 0.625 0
1.5 0.625 0
1.375 0.625 0
1.5 0.625 0
1.375 0.75 0
1.5 0.75 0
1.25 0.625 0
1.375 0.625 0
1.25 0.75 0
1.375 0.75 0
1.25 0.75 0
1.375 0.75 0
1.25 0.875 0
1.375 0.875 0
1.375 0.75 0
1.5 0.75 0
1.375 0.875 0
1.5 0.875 0
1.375 0.875 0
1.5 0.875 0
1.375 1 0
1.5 1 0
1.25 0.875 0
1.375 0.875 0
1.25 1 0
1.375 1 0
1 0.75 0
1.125 0.75 0
1 0.875 0
1.125 0.875 0
1.125 0.75 0
1.25 0.75 0
1.125 0.875 0
1.25 0.875 0
1.125 0.875 0
1.25 0.875 0
1.125 1 0
1.25 1 0
1 0.875 0
1.125 0.875 0
1 1 0
1.125 1 0
2 0 0
2.125 0 0
2 0.125 0
2.125 0.125 0
2.125 0 0
2.25 0 0
2.125 0.125 0
2.25 0.125 0
2.125 0.125 0
2.25 0.125 0
2.125 0.25 0
2.25 0.25 0
2 0.125 0
2.125 0.125 0
2 0.25 0
2.125 0.25 0
2.25 0 0
2.375 0 0
2.25 0.125 0
2.375 0.125 0
2.375 0 0
2.5 0 0
2.375 0.125 0
2.5 0.125 0
2.375 0.125 0
2.5 0.125 0
2.375 0.25 0
2.5 0.25 0
2.25 0.125 0
2.375 0.125 0
2.25 0.25 0
2.375 0.25 0
2.25 0.25 0
2.375 0.25 0
2.25 0.375 0
2.375 0.375 0
2.375 0.25 0
2.5 0.25 0
2.375 0.375 0
2.5 0.375 0
2.375 0.375 0
2.5 0.375 0
2.375 0.5 0
2.5 0.5 0
2.25 0.375 0
2.375 0.375 0
2.25 0.5 0
2.375 0.5 0
2 0.25 0
2.125 0.25 0
2 0.375 0
2.125 0.375 0
2.125 0.25 0
2.25 0.25 0
2.125 0.375 0
2.25 0.375 0
2.125 0.375 0
2.25 0.375 0
2.125 0.5 0
2.25 0.5 0
2 0.375 0
2.125 0.375 0
2 0.5 0
2.125 0.5 0
2.5 0 0
2.625 0 0
2.5 0.125 0
2.625 0.125 0
2.625 0 0
2.75 0 0
2.625 0.125 0
2.75 0.125 0
2.625 0.125 0
2.75 0.125 0
2.625 0.25 0
2.75 0.25 0
2.5 0.125 0
2.625 0.125 0
2.5 0.25 0
2.625 0.25 0
2.75 0 0
2.875 0 0
2.75 0.125 0
2.875 0.125 0
2.875 0 0
3 0 0
2.875 0.125 0
3 0.125 0
2.875 0.125 0
3 0.125 0
2.875 0.25 0
3 0.25 0
2.75 0.125 0
2.875 0.125 0
2.75 0.25 0
2.875 0.25 0
2.75 0.25 0
2.875 0.25 0
2.75 0.375 0
2.875 0.375 0
2.875 0.25 0
3 0.25 0
2.875 0.375 0
3 0.375 0
2.875 0.375 0
3 0.375 0
2.875 0.5 0
3 0.5 0
2.75 0.375 0
2.875 0.375 0
2.75 0.5 0
2.875 0.5 0
2.5 0.25 0
2.625 0.25 0
2.5 0.375 0
2.625 0.375 0
2.625 0.25 0
2.75 0.25 0
2.625 0.375 0
2.75 0.375 0
2.625 0.375 0
2.75 0.375 0
2.625 0.5 0
2.75 0.5 0
2.5 0.375 0
2.625 0.375 0
2.5 0.5 0
2.625 0.5 0
2.5 0.5 0
2.625 0.5 0
2.5 0.625 0
2.625 0.625 0
2.625 0.5 0
2.75 0.5 0
2.625 0.625 0
2.75 0.625 0
2.625 0.625 0
2.75 0.625 0
2.625 0.75 0
2.75 0.75 0
2.5 0.625 0
2.625 0.625 0
2.5 0.75 0
2.625 0.75 0
2.75 0.5 0
2.875 0.5 0
2.75 0.625 0
2.875 0.625 0
2.875 0.5 0
3 0.5 0
2.875 0.625 0
3 0.625 0
2.875 0.625 0
3 0.625 0
2.875 0.75 0
3 0.75 0
2.75 0.625 0
2.875 0.625 0
2.75 0.75 0
2.875 0.75 0
2.75 0.75 0
2.875 0.75 0
2.75 0.875 0
2.875 0.875 0
2.875 0.75 0
3 0.75 0
2.875 0.875 0
3 0.875 0
2.875 0.875 0
3 0.875 0
2.875 1 0
3 1 0
2.75 0.875 0
2.875 0.875 0
2.75 1 0
2.875 1 0
2.5 0.75 0
2.625 0.75 0
2.5 0.875 0
2.625 0.875 0
2.625 0.75 0
2.75 0.75 0
2.625 0.875 0
2.75 0.875 0
2.625 0.875 0
2.75 0.875 0
2.625 1 0
2.75 1 0
2.5 0.875 0
2.625 0.875 0
2.5 1 0
2.625 1 0
2 0.5 0
2.125 0.5 0
2 0.625 0
2.125 0.625 0
2.125 0.5 0
2.25 0.5 0
2.125 0.625 0
2.25 0.625 0
2.125 0.625 0
2.25 0.625 0
2.125 0.75 0
2.25 0.75 0
2 0.625 0
2.125 0.625 0
2 0.75 0
2.125 0.75 0
2.25 0.5 0
2.375 0.5 0
2.25 0.625 0
2.375 0.625 0
2.375 0.5 0
2.5 0.5 0
2.375 0.625 0
2.5 0.625 0
2.375 0.625 0
2.5 0.625 0
2.375 0.75 0
2.5 0.75 0
2.25 0.625 0
2.375 0.625 0
2.25 0.75 0
2.375 0.75 0
2.25 0.75 0
2.375 0.75 0
2.25 0.875 0
2.375 0.875 0
2.375 0.75 0
2.5 0.75 0
2.375 0.875 0
2.5 0.875 0
2.375 0.875 0
2.5 0.875 0
2.375 1 0
2.5 1 0
2.25 0.875 0
2.375 0.875 0
2.25 1 0
2.375 1 0
2 0.75 0
2.125 0.75 0
2 0.875 0
2.125 0.875 0
2.125 0.75 0
2.25 0.75 0
2.125 0.875 0
2.25 0.875 0
2.125 0.875 0
2.25 0.875 0
2.125 1 0
2.25 1 0
2 0.875 0
2.125 0.875 0
2 1 0
2.125 1 0
3 0 0
3.125 0 0
3 0.125 0
3.125 0.125 0
3.125 0 0
3.25 0 0
3.125 0.125 0
3.25 0.125 0
3.125 0.125 0
3.25 0.125 0
3.125 0.25 0
3.25 0.25 0
3 0.125 0
3.125 0.125 0
3 0.25 0
3.125 0.25 0
3.25 0 0
3.375 0 0
3.25 0.125 0
3.375 0.125 0
3.375 0 0
3.5 0 0
3.375 0.125 0
3.5 0.125 0
3.375 0.125 0
3.5 0.125 0
3.375 0.25 0
3.5 0.25 0
3.25 0.125 0
3.375 0.125 0
3.25 0.25 0
3.375 0.25 0
3.25 0.25 0
3.375 0.25 0
3.25 0.375 0
3.375 0.375 0
3.375 0.25 0
3.5 0.25 0
3.375 0.375 0
3.5 0.375 0
3.375 0.375 0
3.5 0.375 0
3.375 0.5 0
3.5 0.5 0
3.25 0.375 0
3.375 0.375 0
3.25 0.5 0
[...]
<CellData Scalars="attribute">
<DataArray type="Int32" Name="attribute" format="ascii">
1
1
1
1
1
1
1
1
1
1
1
1
1
1
1
1
1
1
1
1
1
1
1
1
1
1
1
1
1
1
1
1
1
1
1
1
1
1
1
1
1
1
1
1
1
1
1
1
1
1
1
1
1
1
1
1
1
1
1
1
1
1
1
1
1
1
1
1
1
1
1
1
1
1
1
1
1
1
1
1
1
1
1
1
1
1
1
1
1
1
1
1
1
1
1
1
1
1
1
1
1
1
1
1
1
1
1
1
1
1
1
1
1
1
1
1
1
1
1
1
1
1
1
1
1
1
1
1
1
1
1
1
1
1
1
1
1
1
1
1
1
1
1
1
1
1
1
1
1
1
1
1
1
1
1
1
1
1
1
1
1
1
1
1
1
1
1
1
1
1
1
1
1
1
1
1
1
1
1
1
1
1
1
1
1
1
1
1
1
1
1
1
1
1
1
1
1
1
1
1
1
1
1
1
1
1
1
1
1
1
1
1
1
1
1
1
1
1
1
1
1
1
1
1
1
1
1
1
1
1
1
1
1
1
1
1
1
1
1
1
1
1
1
1
1
1
1
1
1
1
1
1
1
1
1
1
2
2
2
2
2
2
2
2
2
2
2
2
2
2
2
2
2
2
2
2
2
2
2
2
2
2
2
2
2
2
2
2
2
2
2
2
2
2
2
2
2
2
2
2
2
2
2
2
2
2
2
2
2
2
2
2
2
2
2
2
2
2
2
2
2
2
2
2
2
2
2
2
2
2
2
2
2
2
2
2
2
2
2
2
2
2
2
2
2
2
2
2
2
2
2
2
2
2
2
2
2
2
2
2
2
2
2
2
2
2
2
2
2
2
2
2
2
2
2
2
2
2
2
2
2
2
2
2
2
2
2
2
2
2
2
2
2
2
2
2
2
2
2
2
2
2
2
2
2
2
2
2
2
2
2
2
2
2
2
2
2
2
2
2
2
2
2
2
2
2
2
2
2
2
2
2
2
2
2
2
2
2
2
2
2
2
2
2
2
2
2
2
2
2
2
2
2
2
2
2
2
2
2
2
2
2
2
2
2
2
2
2
2
2
2
2
2
2
2
2
2
2
2
2
2
2
2
2
2
2
2
2
2
2
2
2
2
2
2
2
2
2
2
2
2
2
2
2
2
2
2
2
2
2
2
2
</DataArray>
</CellData>
<PointData >
<DataArray type="Float64" Name="Pressure" NumberOfComponents="1" format="ascii" >
-0.000104907
-5.57477e-08
-0.000171667
-9.22817e-08
-5.57477e-08
1.26687e-12
-9.22817e-08
2.19383e-12
-9.22817e-08
2.19383e-12
-6.19526e-08
1.48977e-12
-0.000171667
-9.22817e-08
-0.000114445
-6.19526e-08
1.26687e-12
-1.85586e-17
2.19383e-12
-3.3133e-17
-1.85586e-17
2.77029e-22
-3.3133e-17
5.1275e-22
-3.3133e-17
5.1275e-22
-2.30692e-17
3.66676e-22
2.19383e-12
-3.3133e-17
1.48977e-12
-2.30692e-17
1.48977e-12
-2.30692e-17
7.63437e-13
-1.1788e-17
-2.30692e-17
3.66676e-22
-1.1788e-17
1.87563e-22
-1.1788e-17
1.87563e-22
-3.90015e-19
5.94796e-24
7.63437e-13
-1.1788e-17
2.68957e-14
-3.90015e-19
-0.000114445
-6.19526e-08
-5.72233e-05
-3.14591e-08
-6.19526e-08
1.48977e-12
-3.14591e-08
7.63437e-13
-3.14591e-08
7.63437e-13
-6.96689e-10
2.68957e-14
-5.72233e-05
-3.14591e-08
-8.57374e-10
-6.96689e-10
2.77029e-22
-2.14543e-27
5.1275e-22
-4.11529e-27
-2.14543e-27
2.86845e-32
-4.11529e-27
5.53298e-32
-4.11529e-27
5.53298e-32
-3.04833e-27
4.15725e-32
5.1275e-22
-4.11529e-27
3.66676e-22
-3.04833e-27
2.86845e-32
-9.33721e-38
5.53298e-32
-1.98513e-37
-9.33721e-38
1.89078e-42
-1.98513e-37
3.70189e-42
-1.98513e-37
3.70189e-42
-1.60458e-37
2.86657e-42
5.53298e-32
-1.98513e-37
4.15725e-32
-1.60458e-37
4.15725e-32
-1.60458e-37
2.16125e-32
-8.46005e-38
-1.60458e-37
2.86657e-42
-8.46005e-38
1.52228e-42
-8.46005e-38
1.52228e-42
-2.43773e-39
3.87566e-44
2.16125e-32
-8.46005e-38
6.19776e-34
-2.43773e-39
3.66676e-22
-3.04833e-27
1.87563e-22
-1.56886e-27
-3.04833e-27
4.15725e-32
-1.56886e-27
2.16125e-32
-1.56886e-27
2.16125e-32
-4.78965e-29
6.19776e-34
1.87563e-22
-1.56886e-27
5.94796e-24
-4.78965e-29
5.94796e-24
-4.78965e-29
-1.78199e-22
1.4942e-27
-4.78965e-29
6.19776e-34
1.4942e-27
-2.06669e-32
1.4942e-27
-2.06669e-32
3.0374e-27
-4.14626e-32
-1.78199e-22
1.4942e-27
-3.64953e-22
3.0374e-27
6.19776e-34
-2.43773e-39
-2.06669e-32
8.09071e-38
-2.43773e-39
3.87566e-44
8.09071e-38
-1.46482e-42
8.09071e-38
-1.46482e-42
1.60025e-37
-2.86193e-42
-2.06669e-32
8.09071e-38
-4.14626e-32
1.60025e-37
-4.14626e-32
1.60025e-37
-5.62126e-32
2.01535e-37
1.60025e-37
-2.86193e-42
2.01535e-37
-3.75368e-42
2.01535e-37
-3.75368e-42
9.54091e-38
-1.92738e-42
-5.62126e-32
2.01535e-37
-2.933e-32
9.54091e-38
-3.64953e-22
3.0374e-27
-5.21887e-22
4.18532e-27
3.0374e-27
-4.14626e-32
4.18532e-27
-5.62126e-32
4.18532e-27
-5.62126e-32
2.19748e-27
-2.933e-32
-5.21887e-22
4.18532e-27
-2.8431e-22
2.19748e-27
-8.57374e-10
-6.96689e-10
5.72219e-05
3.03348e-08
-6.96689e-10
2.68957e-14
3.03348e-08
-7.20125e-13
3.03348e-08
-7.20125e-13
6.16352e-08
-1.47787e-12
5.72219e-05
3.03348e-08
0.000114445
6.16352e-08
2.68957e-14
-3.90015e-19
-7.20125e-13
1.11662e-17
-3.90015e-19
5.94796e-24
1.11662e-17
-1.78199e-22
1.11662e-17
-1.78199e-22
2.29246e-17
-3.64953e-22
-7.20125e-13
1.11662e-17
-1.47787e-12
2.29246e-17
-1.47787e-12
2.29246e-17
-2.23439e-12
3.37492e-17
2.29246e-17
-3.64953e-22
3.37492e-17
-5.21887e-22
3.37492e-17
-5.21887e-22
1.90833e-17
-2.8431e-22
-2.23439e-12
3.37492e-17
-1.30841e-12
1.90833e-17
0.000114445
6.16352e-08
0.000171669
9.332e-08
6.16352e-08
-1.47787e-12
9.332e-08
-2.23439e-12
9.332e-08
-2.23439e-12
5.68478e-08
-1.30841e-12
0.000171669
9.332e-08
0.000104908
5.68478e-08
1.89078e-42
1.01148e-48
3.70189e-42
3.45477e-49
1.01148e-48
9.48721e-53
3.45477e-49
1.84104e-52
3.45477e-49
1.84104e-52
-6.85112e-49
1.43682e-52
3.70189e-42
3.45477e-49
2.86657e-42
-6.85112e-49
9.48721e-53
3.11793e-58
1.84104e-52
5.27522e-58
3.11793e-58
3.8502e-63
5.27522e-58
7.33722e-63
5.27522e-58
7.33722e-63
3.64001e-58
5.69534e-63
1.84104e-52
5.27522e-58
1.43682e-52
3.64001e-58
1.43682e-52
3.64001e-58
7.74366e-53
1.89717e-58
3.64001e-58
5.69534e-63
1.89717e-58
3.0881e-63
1.89717e-58
3.0881e-63
3.18804e-60
5.87447e-65
7.74366e-53
1.89717e-58
1.71562e-54
3.18804e-60
2.86657e-42
-6.85112e-49
1.52228e-42
-4.62177e-49
-6.85112e-49
1.43682e-52
-4.62177e-49
7.74366e-53
-4.62177e-49
7.74366e-53
-2.57257e-50
1.71562e-54
1.52228e-42
-4.62177e-49
3.87566e-44
-2.57257e-50
3.8502e-63
1.74342e-68
7.33722e-63
3.12496e-68
1.74342e-68
1.23608e-73
3.12496e-68
2.32169e-73
3.12496e-68
2.32169e-73
2.29573e-68
1.78976e-73
7.33722e-63
3.12496e-68
5.69534e-63
2.29573e-68
1.23608e-73
5.75622e-79
2.32169e-73
1.05099e-78
5.75622e-79
3.04258e-84
1.05099e-78
5.66772e-84
1.05099e-78
5.66772e-84
7.8948e-79
4.35243e-84
2.32169e-73
1.05099e-78
1.78976e-73
7.8948e-79
1.78976e-73
7.8948e-79
9.71772e-74
4.24446e-79
7.8948e-79
4.35243e-84
4.24446e-79
2.36371e-84
4.24446e-79
2.36371e-84
6.10428e-81
3.31131e-86
9.71772e-74
4.24446e-79
1.58319e-75
6.10428e-81
5.69534e-63
2.29573e-68
3.0881e-63
1.22236e-68
2.29573e-68
1.78976e-73
1.22236e-68
9.71772e-74
1.22236e-68
9.71772e-74
1.96395e-70
1.58319e-75
3.0881e-63
1.22236e-68
5.87447e-65
1.96395e-70
5.87447e-65
1.96395e-70
-3.00355e-63
-1.19458e-68
1.96395e-70
1.58319e-75
-1.19458e-68
-9.49144e-74
-1.19458e-68
-9.49144e-74
-2.29648e-68
-1.78913e-73
-3.00355e-63
-1.19458e-68
-5.69175e-63
-2.29648e-68
1.58319e-75
6.10428e-81
-9.49144e-74
-4.15813e-79
6.10428e-81
3.31131e-86
-4.15813e-79
-2.31659e-84
-4.15813e-79
-2.31659e-84
-7.89603e-79
-4.35166e-84
-9.49144e-74
-4.15813e-79
-1.78913e-73
-7.89603e-79
-1.78913e-73
-7.89603e-79
-2.34305e-73
-1.0601e-78
-7.89603e-79
-4.35166e-84
-1.0601e-78
-5.71324e-84
-1.0601e-78
-5.71324e-84
-5.82107e-79
-3.07486e-84
-2.34305e-73
-1.0601e-78
-1.25121e-73
-5.82107e-79
-5.69175e-63
-2.29648e-68
-7.41472e-63
-3.15595e-68
-2.29648e-68
-1.78913e-73
-3.15595e-68
-2.34305e-73
-3.15595e-68
-2.34305e-73
-1.76578e-68
-1.25121e-73
-7.41472e-63
-3.15595e-68
-3.9049e-63
-1.76578e-68
3.87566e-44
-2.57257e-50
-1.46482e-42
4.21945e-49
-2.57257e-50
1.71562e-54
4.21945e-49
-7.49394e-53
4.21945e-49
-7.49394e-53
6.7238e-49
-1.43533e-52
-1.46482e-42
4.21945e-49
-2.86193e-42
6.7238e-49
1.71562e-54
3.18804e-60
-7.49394e-53
-1.85228e-58
3.18804e-60
5.87447e-65
-1.85228e-58
-3.00355e-63
-1.85228e-58
-3.00355e-63
-3.6434e-58
-5.69175e-63
-7.49394e-53
-1.85228e-58
-1.43533e-52
-3.6434e-58
-1.43533e-52
-3.6434e-58
-1.86342e-52
-5.33475e-58
-3.6434e-58
-5.69175e-63
-5.33475e-58
-7.41472e-63
-5.33475e-58
-7.41472e-63
-3.16263e-58
-3.9049e-63
-1.86342e-52
-5.33475e-58
-9.64448e-53
-3.16263e-58
-2.86193e-42
6.7238e-49
-3.75368e-42
-3.47172e-49
6.7238e-49
-1.43533e-52
-3.47172e-49
-1.86342e-52
-3.47172e-49
-1.86342e-52
-1.02137e-48
-9.64448e-53
-3.75368e-42
-3.47172e-49
-1.92738e-42
-1.02137e-48
3.04258e-84
1.31024e-89
5.66772e-84
2.40999e-89
1.31024e-89
5.6721e-95
2.40999e-89
1.05228e-94
2.40999e-89
1.05228e-94
1.82956e-89
8.07105e-95
5.66772e-84
2.40999e-89
4.35243e-84
1.82956e-89
5.6721e-95
2.17519e-100
1.05228e-94
4.01299e-100
2.17519e-100
8.01515e-106
4.01299e-100
1.48401e-105
4.01299e-100
1.48401e-105
3.06348e-100
1.13841e-105
1.05228e-94
4.01299e-100
8.07105e-95
3.06348e-100
8.07105e-95
3.06348e-100
4.38416e-95
1.66046e-100
3.06348e-100
1.13841e-105
1.66046e-100
6.1857e-106
1.66046e-100
6.1857e-106
1.84653e-102
6.49933e-108
4.38416e-95
1.66046e-100
5.30832e-97
1.84653e-102
4.35243e-84
1.82956e-89
2.36371e-84
9.88792e-90
1.82956e-89
8.07105e-95
9.88792e-90
4.38416e-95
9.88792e-90
4.38416e-95
1.25398e-91
5.30832e-97
2.36371e-84
9.88792e-90
3.31131e-86
1.25398e-91
8.01515e-106
2.70469e-111
1.48401e-105
4.99556e-111
2.70469e-111
8.6258e-117
4.99556e-111
1.59545e-116
4.99556e-111
1.59545e-116
3.82546e-111
1.22465e-116
1.48401e-105
4.99556e-111
1.13841e-105
3.82546e-111
8.6258e-117
2.55262e-122
1.59545e-116
4.71616e-122
2.55262e-122
7.09384e-128
4.71616e-122
1.3113e-127
4.71616e-122
1.3113e-127
3.61823e-122
1.00725e-127
1.59545e-116
4.71616e-122
1.22465e-116
3.61823e-122
1.22465e-116
3.61823e-122
6.6563e-117
1.96592e-122
3.61823e-122
1.00725e-127
1.96592e-122
5.47581e-128
1.96592e-122
5.47581e-128
1.67163e-124
4.36388e-130
6.6563e-117
1.96592e-122
6.08556e-119
1.67163e-124
1.13841e-105
3.82546e-111
6.1857e-106
2.07676e-111
3.82546e-111
1.22465e-116
2.07676e-111
6.6563e-117
2.07676e-111
6.6563e-117
2.0204e-113
6.08556e-119
6.1857e-106
2.07676e-111
6.49933e-108
2.0204e-113
6.49933e-108
2.0204e-113
-6.09361e-106
-2.04819e-111
2.0204e-113
6.08556e-119
-2.04819e-111
-6.57014e-117
-2.04819e-111
-6.57014e-117
-3.82551e-111
-1.22462e-116
-6.09361e-106
-2.04819e-111
-1.13836e-105
-3.82551e-111
6.08556e-119
1.67163e-124
-6.57014e-117
-1.94227e-122
1.67163e-124
4.36388e-130
-1.94227e-122
-5.41404e-128
-1.94227e-122
-5.41404e-128
-3.61822e-122
-1.00723e-127
-6.57014e-117
-1.94227e-122
-1.22462e-116
-3.61822e-122
-1.22462e-116
-3.61822e-122
-1.60398e-116
-4.73973e-122
-3.61822e-122
-1.00723e-127
-4.73973e-122
-1.31741e-127
-4.73973e-122
-1.31741e-127
-2.56931e-122
-7.13713e-128
-1.60398e-116
-4.73973e-122
-8.68619e-117
-2.56931e-122
-1.13836e-105
-3.82551e-111
-1.4931e-105
-5.02419e-111
-3.82551e-111
-1.22462e-116
-5.02419e-111
-1.60398e-116
-5.02419e-111
-1.60398e-116
-2.72497e-111
-8.68619e-117
-1.4931e-105
-5.02419e-111
-8.07955e-106
-2.72497e-111
3.31131e-86
1.25398e-91
-2.31659e-84
-9.71063e-90
1.25398e-91
5.30832e-97
-9.71063e-90
-4.30883e-95
-9.71063e-90
-4.30883e-95
-1.82971e-89
-8.07034e-95
-2.31659e-84
-9.71063e-90
-4.35166e-84
-1.82971e-89
5.30832e-97
1.84653e-102
-4.30883e-95
-1.63435e-100
1.84653e-102
6.49933e-108
-1.63435e-100
-6.09361e-106
-1.63435e-100
-6.09361e-106
-3.06359e-100
-1.13836e-105
-4.30883e-95
-1.63435e-100
-8.07034e-95
-3.06359e-100
-8.07034e-95
-3.06359e-100
-1.05965e-94
-4.03938e-100
-3.06359e-100
-1.13836e-105
-4.03938e-100
-1.4931e-105
-4.03938e-100
-1.4931e-105
-2.19388e-100
-8.07955e-106
-1.05965e-94
-4.03938e-100
-5.72443e-95
-2.19388e-100
-4.35166e-84
-1.82971e-89
-5.71324e-84
-2.42818e-89
-1.82971e-89
-8.07034e-95
-2.42818e-89
-1.05965e-94
-2.42818e-89
-1.05965e-94
-1.32315e-89
-5.72443e-95
-5.71324e-84
-2.42818e-89
-3.07486e-84
-1.32315e-89
7.09384e-128
1.83763e-133
1.3113e-127
3.395e-133
1.83763e-133
4.45461e-139
3.395e-133
8.23085e-139
3.395e-133
8.23085e-139
2.6077e-133
6.32633e-139
1.3113e-127
3.395e-133
1.00725e-127
2.6077e-133
4.45461e-139
1.00654e-144
8.23085e-139
1.85921e-144
1.00654e-144
2.11973e-150
1.85921e-144
3.91527e-150
1.85921e-144
3.91527e-150
1.42919e-144
3.01088e-150
8.23085e-139
1.85921e-144
6.32633e-139
1.42919e-144
6.32633e-139
1.42919e-144
3.43965e-139
7.77009e-145
1.42919e-144
3.01088e-150
7.77009e-145
1.63708e-150
7.77009e-145
1.63708e-150
5.04535e-147
9.94487e-153
3.43965e-139
7.77009e-145
2.39226e-141
5.04535e-147
1.00725e-127
2.6077e-133
5.47581e-128
1.41746e-133
2.6077e-133
6.32633e-139
1.41746e-133
3.43965e-139
1.41746e-133
3.43965e-139
1.0532e-135
2.39226e-141
5.47581e-128
1.41746e-133
4.36388e-130
1.0532e-135
2.11973e-150
4.14475e-156
3.91527e-150
7.65399e-156
4.14475e-156
7.49934e-162
7.65399e-156
1.38475e-161
7.65399e-156
1.38475e-161
5.8869e-156
1.06532e-161
3.91527e-150
7.65399e-156
3.01088e-150
5.8869e-156
7.49934e-162
1.24759e-167
1.38475e-161
2.30328e-167
1.24759e-167
1.89127e-173
2.30328e-167
3.49125e-173
2.30328e-167
3.49125e-173
1.77223e-167
2.68677e-173
1.38475e-161
2.30328e-167
1.06532e-161
1.77223e-167
1.06532e-161
1.77223e-167
5.79225e-162
9.63536e-168
1.77223e-167
2.68677e-173
9.63536e-168
1.46073e-173
9.63536e-168
1.46073e-173
4.78254e-170
6.78213e-176
5.79225e-162
9.63536e-168
3.07532e-164
4.78254e-170
3.01088e-150
5.8869e-156
1.63708e-150
3.20071e-156
5.8869e-156
1.06532e-161
3.20071e-156
5.79225e-162
3.20071e-156
5.79225e-162
1.81676e-158
3.07532e-164
1.63708e-150
3.20071e-156
9.94487e-153
1.81676e-158
9.94487e-153
1.81676e-158
-1.623e-150
-3.17498e-156
1.81676e-158
3.07532e-164
-3.17498e-156
-5.74868e-162
-3.17498e-156
-5.74868e-162
-5.88675e-156
-1.06529e-161
-1.623e-150
-3.17498e-156
-3.0108e-150
-5.88675e-156
3.07532e-164
4.78254e-170
-5.74868e-162
-9.56758e-168
4.78254e-170
6.78213e-176
-9.56758e-168
-1.45111e-173
-9.56758e-168
-1.45111e-173
-1.77218e-167
-2.68668e-173
-5.74868e-162
-9.56758e-168
-1.06529e-161
-1.77218e-167
-1.06529e-161
-1.77218e-167
-1.38903e-161
-2.30993e-167
-1.77218e-167
-2.68668e-173
-2.30993e-167
-3.50066e-173
-2.30993e-167
-3.50066e-173
-1.25229e-167
-1.89794e-173
-1.38903e-161
-2.30993e-167
-7.52965e-162
-1.25229e-167
-3.0108e-150
-5.88675e-156
-3.92915e-150
-7.67933e-156
-5.88675e-156
-1.06529e-161
-7.67933e-156
-1.38903e-161
-7.67933e-156
-1.38903e-161
-4.16269e-156
-7.52965e-162
-3.92915e-150
-7.67933e-156
-2.12956e-150
-4.16269e-156
4.36388e-130
1.0532e-135
-5.41404e-128
-1.40256e-133
1.0532e-135
2.39226e-141
-1.40256e-133
-3.40578e-139
-1.40256e-133
-3.40578e-139
-2.60767e-133
-6.32619e-139
-5.41404e-128
-1.40256e-133
-1.00723e-127
-2.60767e-133
2.39226e-141
5.04535e-147
-3.40578e-139
-7.69867e-145
5.04535e-147
9.94487e-153
-7.69867e-145
-1.623e-150
-7.69867e-145
-1.623e-150
-1.42916e-144
-3.0108e-150
-3.40578e-139
-7.69867e-145
-6.32619e-139
-1.42916e-144
-6.32619e-139
-1.42916e-144
-8.26431e-139
-1.86628e-144
-1.42916e-144
-3.0108e-150
-1.86628e-144
-3.92915e-150
-1.86628e-144
-3.92915e-150
-1.01154e-144
-2.12956e-150
-8.26431e-139
-1.86628e-144
-4.47831e-139
-1.01154e-144
-1.00723e-127
-2.60767e-133
-1.31741e-127
-3.40979e-133
-2.60767e-133
-6.32619e-139
-3.40979e-133
-8.26431e-139
-3.40979e-133
-8.26431e-139
-1.8481e-133
-4.47831e-139
-1.31741e-127
-3.40979e-133
-7.13713e-128
-1.8481e-133
1.89127e-173
2.5732e-179
3.49125e-173
4.7494e-179
2.5732e-179
3.05798e-185
4.7494e-179
5.64353e-185
4.7494e-179
5.64353e-185
3.65545e-179
4.34419e-185
3.49125e-173
4.7494e-179
2.68677e-173
3.65545e-179
3.05798e-185
2.99197e-191
5.64353e-185
5.52103e-191
2.99197e-191
2.0042e-197
5.52103e-191
3.69792e-197
5.52103e-191
3.69792e-197
4.25032e-191
2.84709e-197
5.64353e-185
5.52103e-191
4.34419e-185
4.25032e-191
4.34419e-185
4.25032e-191
2.36162e-185
2.31048e-191
4.25032e-191
2.84709e-197
2.31048e-191
1.54761e-197
2.31048e-191
1.54761e-197
8.78044e-194
5.50332e-200
2.36162e-185
2.31048e-191
9.5936e-188
8.78044e-194
2.68677e-173
3.65545e-179
1.46073e-173
1.98728e-179
3.65545e-179
4.34419e-185
1.98728e-179
2.36162e-185
1.98728e-179
2.36162e-185
8.62912e-182
9.5936e-188
1.46073e-173
1.98728e-179
6.78213e-176
8.62912e-182
2.0042e-197
-8.78014e-205
3.69792e-197
-1.61985e-204
-8.78014e-205
-3.02143e-209
-1.61985e-204
-5.57366e-209
-1.61985e-204
-5.57366e-209
-1.24727e-204
-4.29193e-209
3.69792e-197
-1.61985e-204
2.84709e-197
-1.24727e-204
-3.02143e-209
-5.93003e-215
-5.57366e-209
-1.09381e-214
-5.93003e-215
-7.47514e-221
-1.09381e-214
-1.37869e-220
-1.09381e-214
-1.37869e-220
-8.42332e-215
-1.06178e-220
-5.57366e-209
-1.09381e-214
-4.29193e-209
-8.42332e-215
-4.29193e-209
-8.42332e-215
-2.33275e-209
-4.57801e-215
-8.42332e-215
-1.06178e-220
-4.57801e-215
-5.77039e-221
-4.57801e-215
-5.77039e-221
-1.33459e-217
-1.57487e-223
-2.33275e-209
-4.57801e-215
-7.26514e-212
-1.33459e-217
2.84709e-197
-1.24727e-204
1.54761e-197
-6.77949e-205
-1.24727e-204
-4.29193e-209
-6.77949e-205
-2.33275e-209
-6.77949e-205
-2.33275e-209
-2.2554e-207
-7.26514e-212
1.54761e-197
-6.77949e-205
5.50332e-200
-2.2554e-207
5.50332e-200
-2.2554e-207
-1.53979e-197
6.74745e-205
-2.2554e-207
-7.26514e-212
6.74745e-205
2.32242e-209
6.74745e-205
2.32242e-209
1.24722e-204
4.29175e-209
-1.53979e-197
6.74745e-205
-2.84698e-197
1.24722e-204
-7.26514e-212
-1.33459e-217
2.32242e-209
4.55903e-215
-1.33459e-217
-1.57487e-223
4.55903e-215
5.74798e-221
4.55903e-215
5.74798e-221
8.42295e-215
1.06173e-220
2.32242e-209
4.55903e-215
4.29175e-209
8.42295e-215
4.29175e-209
8.42295e-215
5.5836e-209
1.09563e-214
8.42295e-215
1.06173e-220
1.09563e-214
1.38083e-220
1.09563e-214
1.38083e-220
5.94292e-215
7.4903e-221
5.5836e-209
1.09563e-214
3.02847e-209
5.94292e-215
-2.84698e-197
1.24722e-204
-3.70549e-197
1.62295e-204
1.24722e-204
4.29175e-209
1.62295e-204
5.5836e-209
1.62295e-204
5.5836e-209
8.80205e-205
3.02847e-209
-3.70549e-197
1.62295e-204
-2.00956e-197
8.80205e-205
6.78213e-176
8.62912e-182
-1.45111e-173
-1.97505e-179
8.62912e-182
9.5936e-188
-1.97505e-179
-2.34801e-185
-1.97505e-179
-2.34801e-185
-3.65533e-179
-4.34403e-185
-1.45111e-173
-1.97505e-179
-2.68668e-173
-3.65533e-179
9.5936e-188
8.78044e-194
-2.34801e-185
-2.29801e-191
8.78044e-194
5.50332e-200
-2.29801e-191
-1.53979e-197
-2.29801e-191
-1.53979e-197
-4.25016e-191
-2.84698e-197
-2.34801e-185
-2.29801e-191
-4.34403e-185
-4.25016e-191
-4.34403e-185
-4.25016e-191
-5.65678e-185
-5.53314e-191
-4.25016e-191
-2.84698e-197
-5.53314e-191
-3.70549e-197
-5.53314e-191
-3.70549e-197
-3.00054e-191
-2.00956e-197
-5.65678e-185
-5.53314e-191
-3.06736e-185
-3.00054e-191
-2.68668e-173
-3.65533e-179
-3.50066e-173
-4.76135e-179
-3.65533e-179
-4.34403e-185
-4.76135e-179
-5.65678e-185
-4.76135e-179
-5.65678e-185
-2.58166e-179
-3.06736e-185
-3.50066e-173
-4.76135e-179
-1.89794e-173
-2.58166e-179
-7.47514e-221
-6.38226e-227
-1.37869e-220
-1.17702e-226
-6.38226e-227
-2.25167e-233
-1.17702e-226
-4.15221e-233
-1.17702e-226
-4.15221e-233
-9.06514e-227
-3.19809e-233
-1.37869e-220
-1.17702e-226
-1.06178e-220
-9.06514e-227
-2.25167e-233
3.78622e-239
-4.15221e-233
6.98149e-239
3.78622e-239
9.13497e-245
6.98149e-239
1.6843e-244
6.98149e-239
1.6843e-244
5.37749e-239
1.29738e-244
-4.15221e-233
6.98149e-239
-3.19809e-233
5.37749e-239
-3.19809e-233
5.37749e-239
-1.73789e-233
2.92208e-239
5.37749e-239
1.29738e-244
2.92208e-239
7.04955e-245
2.92208e-239
7.04955e-245
6.54966e-242
1.48027e-247
-1.73789e-233
2.92208e-239
-4.15905e-236
6.54966e-242
-1.06178e-220
-9.06514e-227
-5.77039e-221
-4.92636e-227
-9.06514e-227
-3.19809e-233
-4.92636e-227
-1.73789e-233
-4.92636e-227
-1.73789e-233
-1.2589e-229
-4.15905e-236
-5.77039e-221
-4.92636e-227
-1.57487e-223
-1.2589e-229
9.13497e-245
1.08196e-250
1.6843e-244
1.99478e-250
1.08196e-250
7.2466e-257
1.99478e-250
1.33595e-256
1.99478e-250
1.33595e-256
1.5366e-250
1.02913e-256
1.6843e-244
1.99478e-250
1.29738e-244
1.5366e-250
7.2466e-257
-3.95783e-264
1.33595e-256
-7.29608e-264
-3.95783e-264
-8.24989e-269
-7.29608e-264
-1.52074e-268
-7.29608e-264
-1.52074e-268
-5.62064e-264
-1.17155e-268
1.33595e-256
-7.29608e-264
1.02913e-256
-5.62064e-264
1.02913e-256
-5.62064e-264
5.59149e-257
-3.05372e-264
-5.62064e-264
-1.17155e-268
-3.05372e-264
-6.36484e-269
-3.05372e-264
-6.36484e-269
-5.27697e-267
-1.03137e-271
5.59149e-257
-3.05372e-264
1.03099e-259
-5.27697e-267
1.29738e-244
1.5366e-250
7.04955e-245
8.34903e-251
1.5366e-250
1.02913e-256
8.34903e-251
5.59149e-257
8.34903e-251
5.59149e-257
1.64265e-253
1.03099e-259
7.04955e-245
8.34903e-251
1.48027e-247
1.64265e-253
1.48027e-247
1.64265e-253
-7.02842e-245
-8.32557e-251
1.64265e-253
1.03099e-259
-8.32557e-251
-5.57675e-257
-8.32557e-251
-5.57675e-257
-1.53652e-250
-1.02907e-256
-7.02842e-245
-8.32557e-251
-1.29732e-244
-1.53652e-250
1.03099e-259
-5.27697e-267
-5.57675e-257
3.04617e-264
-5.27697e-267
-1.03137e-271
3.04617e-264
6.35007e-269
3.04617e-264
6.35007e-269
5.62034e-264
1.17148e-268
-5.57675e-257
3.04617e-264
-1.02907e-256
5.62034e-264
-1.02907e-256
5.62034e-264
-1.33732e-256
7.30305e-264
5.62034e-264
1.17148e-268
7.30305e-264
1.52209e-268