<VTKFile type="UnstructuredGrid" version="0.1" byte_order="LittleEndian">
<UnstructuredGrid>
<Piece NumberOfPoints="2048" NumberOfCells="512">
<Points>
<DataArray type="Float64" NumberOfComponents="3" format="ascii">
0 0 0
0.125 0 0
0 0.125 0
0.125 0.125 0
0.125 0 0
0.25 0 0
0.125 0.125 0
0.25 0.125 0
0.125 0.125 0
0.25 0.125 0
0.125 0.25 0
0.25 0.25 0
0 0.125 0
0.125 0.125 0
0 0.25 0
0.125 0.25 0
0.25 0 0
0.375 0 0
0.25 0.125 0
0.375 0.125 0
0.375 0 0
0.5 0 0
0.375 0.125 0
0.5 0.125 0
0.375 0.125 0
0.5 0.125 0
0.375 0.25 0
0.5 0.25 0
0.25 0.125 0
0.375 0.125 0
0.25 0.25 0
0.375 0.25 0
0.25 0.25 0
0.375 0.25 0
0.25 0.375 0
0.375 0.375 0
0.375 0.25 0
0.5 0.25 0
0.375 0.375 0
0.5 0.375 0
0.375 0.375 0
0.5 0.375 0
0.375 0.5 0
0.5 0.5 0
0.25 0.375 0
0.375 0.375 0
0.25 0.5 0
0.375 0.5 0
0 0.25 0
0.125 0.25 0
0 0.375 0
0.125 0.375 0
0.125 0.25 0
0.25 0.25 0
0.125 0.375 0
0.25 0.375 0
0.125 0.375 0
0.25 0.375 0
0.125 0.5 0
0.25 0.5 0
0 0.375 0
0.125 0.375 0
0 0.5 0
0.125 0.5 0
0.5 0 0
0.625 0 0
0.5 0.125 0
0.625 0.125 0
0.625 0 0
0.75 0 0
0.625 0.125 0
0.75 0.125 0
0.625 0.125 0
0.75 0.125 0
0.625 0.25 0
0.75 0.25 0
0.5 0.125 0
0.625 0.125 0
0.5 0.25 0
0.625 0.25 0
0.75 0 0
0.875 0 0
0.75 0.125 0
0.875 0.125 0
0.875 0 0
1 0 0
0.875 0.125 0
1 0.125 0
0.875 0.125 0
1 0.125 0
0.875 0.25 0
1 0.25 0
0.75 0.125 0
0.875 0.125 0
0.75 0.25 0
0.875 0.25 0
0.75 0.25 0
0.875 0.25 0
0.75 0.375 0
0.875 0.375 0
0.875 0.25 0
1 0.25 0
0.875 0.375 0
1 0.375 0
0.875 0.375 0
1 0.375 0
0.875 0.5 0
1 0.5 0
0.75 0.375 0
0.875 0.375 0
0.75 0.5 0
0.875 0.5 0
0.5 0.25 0
0.625 0.25 0
0.5 0.375 0
0.625 0.375 0
0.625 0.25 0
0.75 0.25 0
0.625 0.375 0
0.75 0.375 0
0.625 0.375 0
0.75 0.375 0
0.625 0.5 0
0.75 0.5 0
0.5 0.375 0
0.625 0.375 0
0.5 0.5 0
0.625 0.5 0
0.5 0.5 0
0.625 0.5 0
0.5 0.625 0
0.625 0.625 0
0.625 0.5 0
0.75 0.5 0
0.625 0.625 0
0.75 0.625 0
0.625 0.625 0
0.75 0.625 0
0.625 0.75 0
0.75 0.75 0
0.5 0.625 0
0.625 0.625 0
0.5 0.75 0
0.625 0.75 0
0.75 0.5 0
0.875 0.5 0
0.75 0.625 0
0.875 0.625 0
0.875 0.5 0
1 0.5 0
0.875 0.625 0
1 0.625 0
0.875 0.625 0
1 0.625 0
0.875 0.75 0
1 0.75 0
0.75 0.625 0
0.875 0.625 0
0.75 0.75 0
0.875 0.75 0
0.75 0.75 0
0.875 0.75 0
0.75 0.875 0
0.875 0.875 0
0.875 0.75 0
1 0.75 0
0.875 0.875 0
1 0.875 0
0.875 0.875 0
1 0.875 0
0.875 1 0
1 1 0
0.75 0.875 0
0.875 0.875 0
0.75 1 0
0.875 1 0
0.5 0.75 0
0.625 0.75 0
0.5 0.875 0
0.625 0.875 0
0.625 0.75 0
0.75 0.75 0
0.625 0.875 0
0.75 0.875 0
0.625 0.875 0
0.75 0.875 0
0.625 1 0
0.75 1 0
0.5 0.875 0
0.625 0.875 0
0.5 1 0
0.625 1 0
0 0.5 0
0.125 0.5 0
0 0.625 0
0.125 0.625 0
0.125 0.5 0
0.25 0.5 0
0.125 0.625 0
0.25 0.625 0
0.125 0.625 0
0.25 0.625 0
0.125 0.75 0
0.25 0.75 0
0 0.625 0
0.125 0.625 0
0 0.75 0
0.125 0.75 0
0.25 0.5 0
0.375 0.5 0
0.25 0.625 0
0.375 0.625 0
0.375 0.5 0
0.5 0.5 0
0.375 0.625 0
0.5 0.625 0
0.375 0.625 0
0.5 0.625 0
0.375 0.75 0
0.5 0.75 0
0.25 0.625 0
0.375 0.625 0
0.25 0.75 0
0.375 0.75 0
0.25 0.75 0
0.375 0.75 0
0.25 0.875 0
0.375 0.875 0
0.375 0.75 0
0.5 0.75 0
0.375 0.875 0
0.5 0.875 0
0.375 0.875 0
0.5 0.875 0
0.375 1 0
0.5 1 0
0.25 0.875 0
0.375 0.875 0
0.25 1 0
0.375 1 0
0 0.75 0
0.125 0.75 0
0 0.875 0
0.125 0.875 0
0.125 0.75 0
0.25 0.75 0
0.125 0.875 0
0.25 0.875 0
0.125 0.875 0
0.25 0.875 0
0.125 1 0
0.25 1 0
0 0.875 0
0.125 0.875 0
0 1 0
0.125 1 0
1 0 0
1.125 0 0
1 0.125 0
1.125 0.125 0
1.125 0 0
1.25 0 0
1.125 0.125 0
1.25 0.125 0
1.125 0.125 0
1.25 0.125 0
1.125 0.25 0
1.25 0.25 0
1 0.125 0
1.125 0.125 0
1 0.25 0
1.125 0.25 0
1.25 0 0
1.375 0 0
1.25 0.125 0
1.375 0.125 0
1.375 0 0
1.5 0 0
1.375 0.125 0
1.5 0.125 0
1.375 0.125 0
1.5 0.125 0
1.375 0.25 0
1.5 0.25 0
1.25 0.125 0
1.375 0.125 0
1.25 0.25 0
1.375 0.25 0
1.25 0.25 0
1.375 0.25 0
1.25 0.375 0
1.375 0.375 0
1.375 0.25 0
1.5 0.25 0
1.375 0.375 0
1.5 0.375 0
1.375 0.375 0
1.5 0.375 0
1.375 0.5 0
1.5 0.5 0
1.25 0.375 0
1.375 0.375 0
1.25 0.5 0
1.375 0.5 0
1 0.25 0
1.125 0.25 0
1 0.375 0
1.125 0.375 0
1.125 0.25 0
1.25 0.25 0
1.125 0.375 0
1.25 0.375 0
1.125 0.375 0
1.25 0.375 0
1.125 0.5 0
1.25 0.5 0
1 0.375 0
1.125 0.375 0
1 0.5 0
1.125 0.5 0
1.5 0 0
1.625 0 0
1.5 0.125 0
1.625 0.125 0
1.625 0 0
1.75 0 0
1.625 0.125 0
1.75 0.125 0
1.625 0.125 0
1.75 0.125 0
1.625 0.25 0
1.75 0.25 0
1.5 0.125 0
1.625 0.125 0
1.5 0.25 0
1.625 0.25 0
1.75 0 0
1.875 0 0
1.75 0.125 0
1.875 0.125 0
1.875 0 0
2 0 0
1.875 0.125 0
2 0.125 0
1.875 0.125 0
2 0.125 0
1.875 0.25 0
2 0.25 0
1.75 0.125 0
1.875 0.125 0
1.75 0.25 0
1.875 0.25 0
1.75 0.25 0
1.875 0.25 0
1.75 0.375 0
1.875 0.375 0
1.875 0.25 0
2 0.25 0
1.875 0.375 0
2 0.375 0
1.875 0.375 0
2 0.375 0
1.875 0.5 0
2 0.5 0
1.75 0.375 0
1.875 0.375 0
1.75 0.5 0
1.875 0.5 0
1.5 0.25 0
1.625 0.25 0
1.5 0.375 0
1.625 0.375 0
1.625 0.25 0
1.75 0.25 0
1.625 0.375 0
1.75 0.375 0
1.625 0.375 0
1.75 0.375 0
1.625 0.5 0
1.75 0.5 0
1.5 0.375 0
1.625 0.375 0
1.5 0.5 0
1.625 0.5 0
1.5 0.5 0
1.625 0.5 0
1.5 0.625 0
1.625 0.625 0
1.625 0.5 0
1.75 0.5 0
1.625 0.625 0
1.75 0.625 0
1.625 0.625 0
1.75 0.625 0
1.625 0.75 0
1.75 0.75 0
1.5 0.625 0
1.625 0.625 0
1.5 0.75 0
1.625 0.75 0
1.75 0.5 0
1.875 0.5 0
1.75 0.625 0
1.875 0.625 0
1.875 0.5 0
2 0.5 0
1.875 0.625 0
2 0.625 0
1.875 0.625 0
2 0.625 0
1.875 0.75 0
2 0.75 0
1.75 0.625 0
1.875 0.625 0
1.75 0.75 0
1.875 0.75 0
1.75 0.75 0
1.875 0.75 0
1.75 0.875 0
1.875 0.875 0
1.875 0.75 0
2 0.75 0
1.875 0.875 0
2 0.875 0
1.875 0.875 0
2 0.875 0
1.875 1 0
2 1 0
1.75 0.875 0
1.875 0.875 0
1.75 1 0
1.875 1 0
1.5 0.75 0
1.625 0.75 0
1.5 0.875 0
1.625 0.875 0
1.625 0.75 0
1.75 0.75 0
1.625 0.875 0
1.75 0.875 0
1.625 0.875 0
1.75 0.875 0
1.625 1 0
1.75 1 0
1.5 0.875 0
1.625 0.875 0
1.5 1 0
1.625 1 0
1 0.5 0
1.125 0.5 0
1 0.625 0
1.125 0.625 0
1.125 0.5 0
1.25 0.5 0
1.125 0.625 0
1.25 0.625 0
1.125 0.625 0
1.25 0.625 0
1.125 0.75 0
1.25 0.75 0
1 0.625 0
1.125 0.625 0
1 0.75 0
1.125 0.75 0
1.25 0.5 0
1.375 0.5 0
1.25 0.625 0
1.375 0.625 0
1.375 0.5 0
1.5 0.5 0
1.375 0.625 0
1.5 0.625 0
1.375 0.625 0
1.5 0.625 0
1.375 0.75 0
1.5 0.75 0
1.25 0.625 0
1.375 0.625 0
1.25 0.75 0
1.375 0.75 0
1.25 0.75 0
1.375 0.75 0
1.25 0.875 0
1.375 0.875 0
1.375 0.75 0
1.5 0.75 0
1.375 0.875 0
1.5 0.875 0
1.375 0.875 0
1.5 0.875 0
1.375 1 0
1.5 1 0
1.25 0.875 0
1.375 0.875 0
1.25 1 0
1.375 1 0
1 0.75 0
1.125 0.75 0
1 0.875 0
1.125 0.875 0
1.125 0.75 0
1.25 0.75 0
1.125 0.875 0
1.25 0.875 0
1.125 0.875 0
1.25 0.875 0
1.125 1 0
1.25 1 0
1 0.875 0
1.125 0.875 0
1 1 0
1.125 1 0
2 0 0
2.125 0 0
2 0.125 0
2.125 0.125 0
2.125 0 0
2.25 0 0
2.125 0.125 0
2.25 0.125 0
2.125 0.125 0
2.25 0.125 0
2.125 0.25 0
2.25 0.25 0
2 0.125 0
2.125 0.125 0
2 0.25 0
2.125 0.25 0
2.25 0 0
2.375 0 0
2.25 0.125 0
2.375 0.125 0
2.375 0 0
2.5 0 0
2.375 0.125 0
2.5 0.125 0
2.375 0.125 0
2.5 0.125 0
2.375 0.25 0
2.5 0.25 0
2.25 0.125 0
2.375 0.125 0
2.25 0.25 0
2.375 0.25 0
2.25 0.25 0
2.375 0.25 0
2.25 0.375 0
2.375 0.375 0
2.375 0.25 0
2.5 0.25 0
2.375 0.375 0
2.5 0.375 0
2.375 0.375 0
2.5 0.375 0
2.375 0.5 0
2.5 0.5 0
2.25 0.375 0
2.375 0.375 0
2.25 0.5 0
2.375 0.5 0
2 0.25 0
2.125 0.25 0
2 0.375 0
2.125 0.375 0
2.125 0.25 0
2.25 0.25 0
2.125 0.375 0
2.25 0.375 0
2.125 0.375 0
2.25 0.375 0
2.125 0.5 0
2.25 0.5 0
2 0.375 0
2.125 0.375 0
2 0.5 0
2.125 0.5 0
2.5 0 0
2.625 0 0
2.5 0.125 0
2.625 0.125 0
2.625 0 0
2.75 0 0
2.625 0.125 0
2.75 0.125 0
2.625 0.125 0
2.75 0.125 0
2.625 0.25 0
2.75 0.25 0
2.5 0.125 0
2.625 0.125 0
2.5 0.25 0
2.625 0.25 0
2.75 0 0
2.875 0 0
2.75 0.125 0
2.875 0.125 0
2.875 0 0
3 0 0
2.875 0.125 0
3 0.125 0
2.875 0.125 0
3 0.125 0
2.875 0.25 0
3 0.25 0
2.75 0.125 0
2.875 0.125 0
2.75 0.25 0
2.875 0.25 0
2.75 0.25 0
2.875 0.25 0
2.75 0.375 0
2.875 0.375 0
2.875 0.25 0
3 0.25 0
2.875 0.375 0
3 0.375 0
2.875 0.375 0
3 0.375 0
2.875 0.5 0
3 0.5 0
2.75 0.375 0
2.875 0.375 0
2.75 0.5 0
2.875 0.5 0
2.5 0.25 0
2.625 0.25 0
2.5 0.375 0
2.625 0.375 0
2.625 0.25 0
2.75 0.25 0
2.625 0.375 0
2.75 0.375 0
2.625 0.375 0
2.75 0.375 0
2.625 0.5 0
2.75 0.5 0
2.5 0.375 0
2.625 0.375 0
2.5 0.5 0
2.625 0.5 0
2.5 0.5 0
2.625 0.5 0
2.5 0.625 0
2.625 0.625 0
2.625 0.5 0
2.75 0.5 0
2.625 0.625 0
2.75 0.625 0
2.625 0.625 0
2.75 0.625 0
2.625 0.75 0
2.75 0.75 0
2.5 0.625 0
2.625 0.625 0
2.5 0.75 0
2.625 0.75 0
2.75 0.5 0
2.875 0.5 0
2.75 0.625 0
2.875 0.625 0
2.875 0.5 0
3 0.5 0
2.875 0.625 0
3 0.625 0
2.875 0.625 0
3 0.625 0
2.875 0.75 0
3 0.75 0
2.75 0.625 0
2.875 0.625 0
2.75 0.75 0
2.875 0.75 0
2.75 0.75 0
2.875 0.75 0
2.75 0.875 0
2.875 0.875 0
2.875 0.75 0
3 0.75 0
2.875 0.875 0
3 0.875 0
2.875 0.875 0
3 0.875 0
2.875 1 0
3 1 0
2.75 0.875 0
2.875 0.875 0
2.75 1 0
2.875 1 0
2.5 0.75 0
2.625 0.75 0
2.5 0.875 0
2.625 0.875 0
2.625 0.75 0
2.75 0.75 0
2.625 0.875 0
2.75 0.875 0
2.625 0.875 0
2.75 0.875 0
2.625 1 0
2.75 1 0
2.5 0.875 0
2.625 0.875 0
2.5 1 0
2.625 1 0
2 0.5 0
2.125 0.5 0
2 0.625 0
2.125 0.625 0
2.125 0.5 0
2.25 0.5 0
2.125 0.625 0
2.25 0.625 0
2.125 0.625 0
2.25 0.625 0
2.125 0.75 0
2.25 0.75 0
2 0.625 0
2.125 0.625 0
2 0.75 0
2.125 0.75 0
2.25 0.5 0
2.375 0.5 0
2.25 0.625 0
2.375 0.625 0
2.375 0.5 0
2.5 0.5 0
2.375 0.625 0
2.5 0.625 0
2.375 0.625 0
2.5 0.625 0
2.375 0.75 0
2.5 0.75 0
2.25 0.625 0
2.375 0.625 0
2.25 0.75 0
2.375 0.75 0
2.25 0.75 0
2.375 0.75 0
2.25 0.875 0
2.375 0.875 0
2.375 0.75 0
2.5 0.75 0
2.375 0.875 0
2.5 0.875 0
2.375 0.875 0
2.5 0.875 0
2.375 1 0
2.5 1 0
2.25 0.875 0
2.375 0.875 0
2.25 1 0
2.375 1 0
2 0.75 0
2.125 0.75 0
2 0.875 0
2.125 0.875 0
2.125 0.75 0
2.25 0.75 0
2.125 0.875 0
2.25 0.875 0
2.125 0.875 0
2.25 0.875 0
2.125 1 0
2.25 1 0
2 0.875 0
2.125 0.875 0
2 1 0
2.125 1 0
3 0 0
3.125 0 0
3 0.125 0
3.125 0.125 0
3.125 0 0
3.25 0 0
3.125 0.125 0
3.25 0.125 0
3.125 0.125 0
3.25 0.125 0
3.125 0.25 0
3.25 0.25 0
3 0.125 0
3.125 0.125 0
3 0.25 0
3.125 0.25 0
3.25 0 0
3.375 0 0
3.25 0.125 0
3.375 0.125 0
3.375 0 0
3.5 0 0
3.375 0.125 0
3.5 0.125 0
3.375 0.125 0
3.5 0.125 0
3.375 0.25 0
3.5 0.25 0
3.25 0.125 0
3.375 0.125 0
3.25 0.25 0
3.375 0.25 0
3.25 0.25 0
3.375 0.25 0
3.25 0.375 0
3.375 0.375 0
3.375 0.25 0
3.5 0.25 0
3.375 0.375 0
3.5 0.375 0
3.375 0.375 0
3.5 0.375 0
3.375 0.5 0
3.5 0.5 0
3.25 0.375 0
3.375 0.375 0
3.25 0.5 0
[...]
<CellData Scalars="attribute">
<DataArray type="Int32" Name="attribute" format="ascii">
1
1
1
1
1
1
1
1
1
1
1
1
1
1
1
1
1
1
1
1
1
1
1
1
1
1
1
1
1
1
1
1
1
1
1
1
1
1
1
1
1
1
1
1
1
1
1
1
1
1
1
1
1
1
1
1
1
1
1
1
1
1
1
1
1
1
1
1
1
1
1
1
1
1
1
1
1
1
1
1
1
1
1
1
1
1
1
1
1
1
1
1
1
1
1
1
1
1
1
1
1
1
1
1
1
1
1
1
1
1
1
1
1
1
1
1
1
1
1
1
1
1
1
1
1
1
1
1
1
1
1
1
1
1
1
1
1
1
1
1
1
1
1
1
1
1
1
1
1
1
1
1
1
1
1
1
1
1
1
1
1
1
1
1
1
1
1
1
1
1
1
1
1
1
1
1
1
1
1
1
1
1
1
1
1
1
1
1
1
1
1
1
1
1
1
1
1
1
1
1
1
1
1
1
1
1
1
1
1
1
1
1
1
1
1
1
1
1
1
1
1
1
1
1
1
1
1
1
1
1
1
1
1
1
1
1
1
1
1
1
1
1
1
1
1
1
1
1
1
1
1
1
1
1
1
1
2
2
2
2
2
2
2
2
2
2
2
2
2
2
2
2
2
2
2
2
2
2
2
2
2
2
2
2
2
2
2
2
2
2
2
2
2
2
2
2
2
2
2
2
2
2
2
2
2
2
2
2
2
2
2
2
2
2
2
2
2
2
2
2
2
2
2
2
2
2
2
2
2
2
2
2
2
2
2
2
2
2
2
2
2
2
2
2
2
2
2
2
2
2
2
2
2
2
2
2
2
2
2
2
2
2
2
2
2
2
2
2
2
2
2
2
2
2
2
2
2
2
2
2
2
2
2
2
2
2
2
2
2
2
2
2
2
2
2
2
2
2
2
2
2
2
2
2
2
2
2
2
2
2
2
2
2
2
2
2
2
2
2
2
2
2
2
2
2
2
2
2
2
2
2
2
2
2
2
2
2
2
2
2
2
2
2
2
2
2
2
2
2
2
2
2
2
2
2
2
2
2
2
2
2
2
2
2
2
2
2
2
2
2
2
2
2
2
2
2
2
2
2
2
2
2
2
2
2
2
2
2
2
2
2
2
2
2
2
2
2
2
2
2
2
2
2
2
2
2
2
2
2
2
2
2
</DataArray>
</CellData>
<PointData >
<DataArray type="Float64" Name="Pressure" NumberOfComponents="1" format="ascii" >
-0.00115292
-2.71794e-06
-0.00188669
-4.4993e-06
-2.71794e-06
2.48071e-10
-4.4993e-06
4.29619e-10
-4.4993e-06
4.29619e-10
-3.02061e-06
2.91751e-10
-0.00188669
-4.4993e-06
-0.00125782
-3.02061e-06
2.48071e-10
-1.41879e-14
4.29619e-10
-2.53347e-14
-1.41879e-14
8.197e-19
-2.53347e-14
1.51761e-18
-2.53347e-14
1.51761e-18
-1.76416e-14
1.08544e-18
4.29619e-10
-2.53347e-14
2.91751e-10
-1.76416e-14
2.91751e-10
-1.76416e-14
1.49516e-10
-9.01478e-15
-1.76416e-14
1.08544e-18
-9.01478e-15
5.5524e-19
-9.01478e-15
5.5524e-19
-2.98624e-16
1.76219e-20
1.49516e-10
-9.01478e-15
5.27693e-12
-2.98624e-16
-0.00125782
-3.02061e-06
-0.000628939
-1.53385e-06
-3.02061e-06
2.91751e-10
-1.53385e-06
1.49516e-10
-1.53385e-06
1.49516e-10
-3.39775e-08
5.27693e-12
-0.000628939
-1.53385e-06
-4.18008e-08
-3.39775e-08
8.197e-19
-2.44918e-23
1.51761e-18
-4.70007e-23
-2.44918e-23
1.27219e-27
-4.70007e-23
2.45458e-27
-4.70007e-23
2.45458e-27
-3.48254e-23
1.8446e-27
1.51761e-18
-4.70007e-23
1.08544e-18
-3.48254e-23
1.27219e-27
-1.60415e-32
2.45458e-27
-3.41513e-32
-1.60415e-32
1.28599e-36
-3.41513e-32
2.51804e-36
-3.41513e-32
2.51804e-36
-2.76283e-32
1.95001e-36
2.45458e-27
-3.41513e-32
1.8446e-27
-2.76283e-32
1.8446e-27
-2.76283e-32
9.59012e-28
-1.45692e-32
-2.76283e-32
1.95001e-36
-1.45692e-32
1.0356e-36
-1.45692e-32
1.0356e-36
-4.20339e-34
2.63694e-38
9.59012e-28
-1.45692e-32
2.75133e-29
-4.20339e-34
1.08544e-18
-3.48254e-23
5.5524e-19
-1.79242e-23
-3.48254e-23
1.8446e-27
-1.79242e-23
9.59012e-28
-1.79242e-23
9.59012e-28
-5.47733e-25
2.75133e-29
5.5524e-19
-1.79242e-23
1.76219e-20
-5.47733e-25
1.76219e-20
-5.47733e-25
-5.27498e-19
1.70705e-23
-5.47733e-25
2.75133e-29
1.70705e-23
-9.17038e-28
1.70705e-23
-9.17038e-28
3.47006e-23
-1.83972e-27
-5.27498e-19
1.70705e-23
-1.08033e-18
3.47006e-23
2.75133e-29
-4.20339e-34
-9.17038e-28
1.39324e-32
-4.20339e-34
2.63694e-38
1.39324e-32
-9.96504e-37
1.39324e-32
-9.96504e-37
2.75537e-32
-1.94686e-36
-9.17038e-28
1.39324e-32
-1.83972e-27
2.75537e-32
-1.83972e-27
2.75537e-32
-2.49376e-27
3.46718e-32
2.75537e-32
-1.94686e-36
3.46718e-32
-2.55327e-36
3.46718e-32
-2.55327e-36
1.63919e-32
-1.31088e-36
-2.49376e-27
3.46718e-32
-1.30083e-27
1.63919e-32
-1.08033e-18
3.47006e-23
-1.54468e-18
4.78012e-23
3.47006e-23
-1.83972e-27
4.78012e-23
-2.49376e-27
4.78012e-23
-2.49376e-27
2.50866e-23
-1.30083e-27
-1.54468e-18
4.78012e-23
-8.41263e-19
2.50866e-23
-4.18008e-08
-3.39775e-08
0.000628871
1.47902e-06
-3.39775e-08
5.27693e-12
1.47902e-06
-1.41018e-10
1.47902e-06
-1.41018e-10
3.00513e-06
-2.89416e-10
0.000628871
1.47902e-06
0.0012578
3.00513e-06
5.27693e-12
-2.98624e-16
-1.41018e-10
8.53872e-15
-2.98624e-16
1.76219e-20
8.53872e-15
-5.27498e-19
8.53872e-15
-5.27498e-19
1.75309e-14
-1.08033e-18
-1.41018e-10
8.53872e-15
-2.89416e-10
1.75309e-14
-2.89416e-10
1.75309e-14
-4.37578e-10
2.58065e-14
1.75309e-14
-1.08033e-18
2.58065e-14
-1.54468e-18
2.58065e-14
-1.54468e-18
1.45895e-14
-8.41263e-19
-4.37578e-10
2.58065e-14
-2.56221e-10
1.45895e-14
0.0012578
3.00513e-06
0.00188675
4.54994e-06
3.00513e-06
-2.89416e-10
4.54994e-06
-4.37578e-10
4.54994e-06
-4.37578e-10
2.77159e-06
-2.56221e-10
0.00188675
4.54994e-06
0.00115299
2.77159e-06
1.28599e-36
2.85886e-42
2.51804e-36
1.17349e-42
2.85886e-42
1.0247e-45
1.17349e-42
1.98835e-45
1.17349e-42
1.98835e-45
-1.669e-42
1.55173e-45
2.51804e-36
1.17349e-42
1.95001e-36
-1.669e-42
1.0247e-45
1.37031e-50
1.98835e-45
2.32022e-50
1.37031e-50
6.88436e-55
2.32022e-50
1.3118e-54
2.32022e-50
1.3118e-54
1.60224e-50
1.01816e-54
1.98835e-45
2.32022e-50
1.55173e-45
1.60224e-50
1.55173e-45
1.60224e-50
8.36302e-46
8.35266e-51
1.60224e-50
1.01816e-54
8.35266e-51
5.5205e-55
8.35266e-51
5.5205e-55
1.40557e-52
1.04995e-56
8.36302e-46
8.35266e-51
1.85266e-47
1.40557e-52
1.95001e-36
-1.669e-42
1.0356e-36
-1.15265e-42
-1.669e-42
1.55173e-45
-1.15265e-42
8.36302e-46
-1.15265e-42
8.36302e-46
-6.73496e-44
1.85266e-47
1.0356e-36
-1.15265e-42
2.63694e-38
-6.73496e-44
6.88436e-55
1.29315e-59
1.3118e-54
2.31837e-59
1.29315e-59
3.83514e-64
2.31837e-59
7.20289e-64
2.31837e-59
7.20289e-64
1.70351e-59
5.5522e-64
1.3118e-54
2.31837e-59
1.01816e-54
1.70351e-59
3.83514e-64
7.5912e-69
7.20289e-64
1.38615e-68
7.5912e-69
1.72654e-73
1.38615e-68
3.21609e-73
1.38615e-68
3.21609e-73
1.04132e-68
2.46963e-73
7.20289e-64
1.38615e-68
5.5522e-64
1.04132e-68
5.5522e-64
1.04132e-68
3.01456e-64
5.59861e-69
1.04132e-68
2.46963e-73
5.59861e-69
1.34118e-73
5.59861e-69
1.34118e-73
8.05256e-71
1.87854e-75
3.01456e-64
5.59861e-69
4.91025e-66
8.05256e-71
1.01816e-54
1.70351e-59
5.5205e-55
9.07092e-60
1.70351e-59
5.5522e-64
9.07092e-60
3.01456e-64
9.07092e-60
3.01456e-64
1.45784e-61
4.91025e-66
5.5205e-55
9.07092e-60
1.04995e-56
1.45784e-61
1.04995e-56
1.45784e-61
-5.36938e-55
-8.86463e-60
1.45784e-61
4.91025e-66
-8.86463e-60
-2.94438e-64
-8.86463e-60
-2.94438e-64
-1.70406e-59
-5.55027e-64
-5.36938e-55
-8.86463e-60
-1.01752e-54
-1.70406e-59
4.91025e-66
8.05256e-71
-2.94438e-64
-5.48472e-69
8.05256e-71
1.87854e-75
-5.48472e-69
-1.31445e-73
-5.48472e-69
-1.31445e-73
-1.04149e-68
-2.4692e-73
-2.94438e-64
-5.48472e-69
-5.55027e-64
-1.04149e-68
-5.55027e-64
-1.04149e-68
-7.26916e-64
-1.39816e-68
-1.04149e-68
-2.4692e-73
-1.39816e-68
-3.24191e-73
-1.39816e-68
-3.24191e-73
-7.67672e-69
-1.74486e-73
-7.26916e-64
-1.39816e-68
-3.88209e-64
-7.67672e-69
-1.01752e-54
-1.70406e-59
-1.32565e-54
-2.34136e-59
-1.70406e-59
-5.55027e-64
-2.34136e-59
-7.26916e-64
-2.34136e-59
-7.26916e-64
-1.30973e-59
-3.88209e-64
-1.32565e-54
-2.34136e-59
-6.98214e-55
-1.30973e-59
2.63694e-38
-6.73496e-44
-9.96504e-37
1.04714e-42
-6.73496e-44
1.85266e-47
1.04714e-42
-8.09336e-46
1.04714e-42
-8.09336e-46
1.63481e-42
-1.55012e-45
-9.96504e-37
1.04714e-42
-1.94686e-36
1.63481e-42
1.85266e-47
1.40557e-52
-8.09336e-46
-8.1547e-51
1.40557e-52
1.04995e-56
-8.1547e-51
-5.36938e-55
-8.1547e-51
-5.36938e-55
-1.60371e-50
-1.01752e-54
-8.09336e-46
-8.1547e-51
-1.55012e-45
-1.60371e-50
-1.55012e-45
-1.60371e-50
-2.01253e-45
-2.3464e-50
-1.60371e-50
-1.01752e-54
-2.3464e-50
-1.32565e-54
-2.3464e-50
-1.32565e-54
-1.38996e-50
-6.98214e-55
-2.01253e-45
-2.3464e-50
-1.04168e-45
-1.38996e-50
-1.94686e-36
1.63481e-42
-2.55327e-36
-1.18111e-42
1.63481e-42
-1.55012e-45
-1.18111e-42
-2.01253e-45
-1.18111e-42
-2.01253e-45
-2.88776e-42
-1.04168e-45
-2.55327e-36
-1.18111e-42
-1.31088e-36
-2.88776e-42
1.72654e-73
3.25003e-78
3.21609e-73
5.97817e-78
3.25003e-78
6.24165e-83
5.97817e-78
1.15792e-82
5.97817e-78
1.15792e-82
4.53854e-78
8.88117e-83
3.21609e-73
5.97817e-78
2.46963e-73
4.53854e-78
6.24165e-83
1.07977e-87
1.15792e-82
1.99211e-87
1.07977e-87
1.82554e-92
1.99211e-87
3.38e-92
1.99211e-87
3.38e-92
1.52078e-87
2.59282e-92
1.15792e-82
1.99211e-87
8.88117e-83
1.52078e-87
8.88117e-83
1.52078e-87
4.82415e-83
8.24296e-88
1.52078e-87
2.59282e-92
8.24296e-88
1.40884e-92
8.24296e-88
1.40884e-92
9.1665e-90
1.48012e-94
4.82415e-83
8.24296e-88
5.84034e-85
9.1665e-90
2.46963e-73
4.53854e-78
1.34118e-73
2.4529e-78
4.53854e-78
8.88117e-83
2.4529e-78
4.82415e-83
2.4529e-78
4.82415e-83
3.1108e-80
5.84034e-85
1.34118e-73
2.4529e-78
1.87854e-75
3.1108e-80
1.82554e-92
2.87898e-97
3.38e-92
5.31752e-97
2.87898e-97
4.37461e-102
5.31752e-97
8.09141e-102
5.31752e-97
8.09141e-102
4.07205e-97
6.21087e-102
3.38e-92
5.31752e-97
2.59282e-92
4.07205e-97
4.37461e-102
6.2975e-107
8.09141e-102
1.16352e-106
6.2975e-107
8.70424e-112
1.16352e-106
1.60899e-111
1.16352e-106
1.60899e-111
8.92652e-107
1.23591e-111
8.09141e-102
1.16352e-106
6.21087e-102
8.92652e-107
6.21087e-102
8.92652e-107
3.37575e-102
4.85011e-107
8.92652e-107
1.23591e-111
4.85011e-107
6.7189e-112
4.85011e-107
6.7189e-112
4.12387e-109
5.35416e-114
3.37575e-102
4.85011e-107
3.08605e-104
4.12387e-109
2.59282e-92
4.07205e-97
1.40884e-92
2.21063e-97
4.07205e-97
6.21087e-102
2.21063e-97
3.37575e-102
2.21063e-97
3.37575e-102
2.15056e-99
3.08605e-104
1.40884e-92
2.21063e-97
1.48012e-94
2.15056e-99
1.48012e-94
2.15056e-99
-1.38786e-92
-2.18022e-97
2.15056e-99
3.08605e-104
-2.18022e-97
-3.33206e-102
-2.18022e-97
-3.33206e-102
-4.0721e-97
-6.2107e-102
-1.38786e-92
-2.18022e-97
-2.5927e-92
-4.0721e-97
3.08605e-104
4.12387e-109
-3.33206e-102
-4.79178e-107
4.12387e-109
5.35416e-114
-4.79178e-107
-6.64311e-112
-4.79178e-107
-6.64311e-112
-8.9265e-107
-1.23588e-111
-3.33206e-102
-4.79178e-107
-6.2107e-102
-8.9265e-107
-6.2107e-102
-8.9265e-107
-8.13464e-102
-1.16933e-106
-8.9265e-107
-1.23588e-111
-1.16933e-106
-1.61649e-111
-1.16933e-106
-1.61649e-111
-6.33865e-107
-8.75736e-112
-8.13464e-102
-1.16933e-106
-4.40524e-102
-6.33865e-107
-2.5927e-92
-4.0721e-97
-3.40069e-92
-5.348e-97
-4.0721e-97
-6.2107e-102
-5.348e-97
-8.13464e-102
-5.348e-97
-8.13464e-102
-2.90056e-97
-4.40524e-102
-3.40069e-92
-5.348e-97
-1.84021e-92
-2.90056e-97
1.87854e-75
3.1108e-80
-1.31445e-73
-2.40892e-78
3.1108e-80
5.84034e-85
-2.40892e-78
-4.74128e-83
-2.40892e-78
-4.74128e-83
-4.5389e-78
-8.88039e-83
-1.31445e-73
-2.40892e-78
-2.4692e-73
-4.5389e-78
5.84034e-85
9.1665e-90
-4.74128e-83
-8.11337e-88
9.1665e-90
1.48012e-94
-8.11337e-88
-1.38786e-92
-8.11337e-88
-1.38786e-92
-1.52084e-87
-2.5927e-92
-4.74128e-83
-8.11337e-88
-8.88039e-83
-1.52084e-87
-8.88039e-83
-1.52084e-87
-1.16604e-82
-2.00521e-87
-1.52084e-87
-2.5927e-92
-2.00521e-87
-3.40069e-92
-2.00521e-87
-3.40069e-92
-1.08905e-87
-1.84021e-92
-1.16604e-82
-2.00521e-87
-6.29924e-83
-1.08905e-87
-2.4692e-73
-4.5389e-78
-3.24191e-73
-6.02329e-78
-4.5389e-78
-8.88039e-83
-6.02329e-78
-1.16604e-82
-6.02329e-78
-1.16604e-82
-3.28204e-78
-6.29924e-83
-3.24191e-73
-6.02329e-78
-1.74486e-73
-3.28204e-78
8.70424e-112
1.14867e-116
1.60899e-111
2.12216e-116
1.14867e-116
1.45592e-121
2.12216e-116
2.69013e-121
2.12216e-116
2.69013e-121
1.63004e-116
2.06767e-121
1.60899e-111
2.12216e-116
1.23591e-111
1.63004e-116
1.45592e-121
1.76991e-126
2.69013e-121
3.26927e-126
1.76991e-126
2.06982e-131
3.26927e-126
3.82309e-131
3.26927e-126
3.82309e-131
2.51311e-126
2.94e-131
2.69013e-121
3.26927e-126
2.06767e-121
2.51311e-126
2.06767e-121
2.51311e-126
1.1242e-121
1.36631e-126
2.51311e-126
2.94e-131
1.36631e-126
1.59854e-131
1.36631e-126
1.59854e-131
8.87133e-129
9.71014e-134
1.1242e-121
1.36631e-126
7.81823e-124
8.87133e-129
1.23591e-111
1.63004e-116
6.7189e-112
8.86039e-117
1.63004e-116
2.06767e-121
8.86039e-117
1.1242e-121
8.86039e-117
1.1242e-121
6.58303e-119
7.81823e-124
6.7189e-112
8.86039e-117
5.35416e-114
6.58303e-119
2.06982e-131
2.32877e-136
3.82309e-131
4.30049e-136
2.32877e-136
2.52523e-141
4.30049e-136
4.66282e-141
4.30049e-136
4.66282e-141
3.30764e-136
3.58723e-141
3.82309e-131
4.30049e-136
2.94e-131
3.30764e-136
2.52523e-141
2.64069e-146
4.66282e-141
4.87523e-146
2.64069e-146
2.66629e-151
4.87523e-146
4.92192e-151
4.87523e-146
4.92192e-151
3.75119e-146
3.78778e-151
4.66282e-141
4.87523e-146
3.58723e-141
3.75119e-146
3.58723e-141
3.75119e-146
1.95041e-141
2.03947e-146
3.75119e-146
3.78778e-151
2.03947e-146
2.05932e-151
2.03947e-146
2.05932e-151
1.01224e-148
9.5608e-154
1.95041e-141
2.03947e-146
1.03548e-143
1.01224e-148
2.94e-131
3.30764e-136
1.59854e-131
1.79836e-136
3.30764e-136
3.58723e-141
1.79836e-136
1.95041e-141
1.79836e-136
1.95041e-141
1.02071e-138
1.03548e-143
1.59854e-131
1.79836e-136
9.71014e-134
1.02071e-138
9.71014e-134
1.02071e-138
-1.58479e-131
-1.78391e-136
1.02071e-138
1.03548e-143
-1.78391e-136
-1.93574e-141
-1.78391e-136
-1.93574e-141
-3.30756e-136
-3.58713e-141
-1.58479e-131
-1.78391e-136
-2.93993e-131
-3.30756e-136
1.03548e-143
1.01224e-148
-1.93574e-141
-2.02512e-146
1.01224e-148
9.5608e-154
-2.02512e-146
-2.04577e-151
-2.02512e-146
-2.04577e-151
-3.75108e-146
-3.78766e-151
-1.93574e-141
-2.02512e-146
-3.58713e-141
-3.75108e-146
-3.58713e-141
-3.75108e-146
-4.67723e-141
-4.8893e-146
-3.75108e-146
-3.78766e-151
-4.8893e-146
-4.93518e-151
-4.8893e-146
-4.93518e-151
-2.65066e-146
-2.67568e-151
-4.67723e-141
-4.8893e-146
-2.53543e-141
-2.65066e-146
-2.93993e-131
-3.30756e-136
-3.83664e-131
-4.31473e-136
-3.30756e-136
-3.58713e-141
-4.31473e-136
-4.67723e-141
-4.31473e-136
-4.67723e-141
-2.33886e-136
-2.53543e-141
-3.83664e-131
-4.31473e-136
-2.07941e-131
-2.33886e-136
5.35416e-114
6.58303e-119
-6.64311e-112
-8.76725e-117
6.58303e-119
7.81823e-124
-8.76725e-117
-1.11313e-121
-8.76725e-117
-1.11313e-121
-1.63002e-116
-2.06762e-121
-6.64311e-112
-8.76725e-117
-1.23588e-111
-1.63002e-116
7.81823e-124
8.87133e-129
-1.11313e-121
-1.35375e-126
8.87133e-129
9.71014e-134
-1.35375e-126
-1.58479e-131
-1.35375e-126
-1.58479e-131
-2.51307e-126
-2.93993e-131
-1.11313e-121
-1.35375e-126
-2.06762e-121
-2.51307e-126
-2.06762e-121
-2.51307e-126
-2.70106e-121
-3.28169e-126
-2.51307e-126
-2.93993e-131
-3.28169e-126
-3.83664e-131
-3.28169e-126
-3.83664e-131
-1.7787e-126
-2.07941e-131
-2.70106e-121
-3.28169e-126
-1.46366e-121
-1.7787e-126
-1.23588e-111
-1.63002e-116
-1.61649e-111
-2.13141e-116
-1.63002e-116
-2.06762e-121
-2.13141e-116
-2.70106e-121
-2.13141e-116
-2.70106e-121
-1.15521e-116
-1.46366e-121
-1.61649e-111
-2.13141e-116
-8.75736e-112
-1.15521e-116
2.66629e-151
2.60129e-156
4.92192e-151
4.80127e-156
2.60129e-156
2.45456e-161
4.80127e-156
4.52992e-161
4.80127e-156
4.52992e-161
3.69539e-156
3.48698e-161
4.92192e-151
4.80127e-156
3.78778e-151
3.69539e-156
2.45456e-161
2.2417e-166
4.52992e-161
4.13658e-166
2.2417e-166
1.98309e-171
4.13658e-166
3.65898e-171
4.13658e-166
3.65898e-171
3.18452e-166
2.81711e-171
4.52992e-161
4.13658e-166
3.48698e-161
3.18452e-166
3.48698e-161
3.18452e-166
1.89562e-161
1.73111e-166
3.18452e-166
2.81711e-171
1.73111e-166
1.53131e-171
1.73111e-166
1.53131e-171
6.57829e-169
5.44503e-174
1.89562e-161
1.73111e-166
7.70009e-164
6.57829e-169
3.78778e-151
3.69539e-156
2.05932e-151
2.00899e-156
3.69539e-156
3.48698e-161
2.00899e-156
1.89562e-161
2.00899e-156
1.89562e-161
8.72287e-159
7.70009e-164
2.05932e-151
2.00899e-156
9.5608e-154
8.72287e-159
1.98309e-171
1.70045e-176
3.65898e-171
3.13714e-176
1.70045e-176
1.41428e-181
3.13714e-176
2.60894e-181
3.13714e-176
2.60894e-181
2.41554e-176
2.00899e-181
3.65898e-171
3.13714e-176
2.81711e-171
2.41554e-176
1.41428e-181
1.14165e-186
2.60894e-181
2.1058e-186
1.14165e-186
8.94969e-192
2.1058e-186
1.65065e-191
2.1058e-186
1.65065e-191
1.62166e-186
1.27123e-191
2.60894e-181
2.1058e-186
2.00899e-181
1.62166e-186
2.00899e-181
1.62166e-186
1.09193e-181
8.81359e-187
1.62166e-186
1.27123e-191
8.81359e-187
6.90869e-192
8.81359e-187
6.90869e-192
2.56922e-189
1.88543e-194
1.09193e-181
8.81359e-187
3.40054e-184
2.56922e-189
2.81711e-171
2.41554e-176
1.53131e-171
1.31296e-176
2.41554e-176
2.00899e-181
1.31296e-176
1.09193e-181
1.31296e-176
1.09193e-181
4.36874e-179
3.40054e-184
1.53131e-171
1.31296e-176
5.44503e-174
4.36874e-179
5.44503e-174
4.36874e-179
-1.52358e-171
-1.30675e-176
4.36874e-179
3.40054e-184
-1.30675e-176
-1.08709e-181
-1.30675e-176
-1.08709e-181
-2.41544e-176
-2.0089e-181
-1.52358e-171
-1.30675e-176
-2.817e-171
-2.41544e-176
3.40054e-184
2.56922e-189
-1.08709e-181
-8.77705e-187
2.56922e-189
1.88543e-194
-8.77705e-187
-6.88187e-192
-8.77705e-187
-6.88187e-192
-1.62159e-186
-1.27117e-191
-1.08709e-181
-8.77705e-187
-2.0089e-181
-1.62159e-186
-2.0089e-181
-1.62159e-186
-2.61359e-181
-2.10931e-186
-1.62159e-186
-1.27117e-191
-2.10931e-186
-1.65322e-191
-2.10931e-186
-1.65322e-191
-1.14413e-186
-8.96784e-192
-2.61359e-181
-2.10931e-186
-1.41758e-181
-1.14413e-186
-2.817e-171
-2.41544e-176
-3.66646e-171
-3.14313e-176
-2.41544e-176
-2.0089e-181
-3.14313e-176
-2.61359e-181
-3.14313e-176
-2.61359e-181
-1.70469e-176
-1.41758e-181
-3.66646e-171
-3.14313e-176
-1.98839e-171
-1.70469e-176
9.5608e-154
8.72287e-159
-2.04577e-151
-1.99662e-156
8.72287e-159
7.70009e-164
-1.99662e-156
-1.8847e-161
-1.99662e-156
-1.8847e-161
-3.69526e-156
-3.48685e-161
-2.04577e-151
-1.99662e-156
-3.78766e-151
-3.69526e-156
7.70009e-164
6.57829e-169
-1.8847e-161
-1.72177e-166
6.57829e-169
5.44503e-174
-1.72177e-166
-1.52358e-171
-1.72177e-166
-1.52358e-171
-3.1844e-166
-2.817e-171
-1.8847e-161
-1.72177e-166
-3.48685e-161
-3.1844e-166
-3.48685e-161
-3.1844e-166
-4.54056e-161
-4.14565e-166
-3.1844e-166
-2.817e-171
-4.14565e-166
-3.66646e-171
-4.14565e-166
-3.66646e-171
-2.24812e-166
-1.98839e-171
-4.54056e-161
-4.14565e-166
-2.46209e-161
-2.24812e-166
-3.78766e-151
-3.69526e-156
-4.93518e-151
-4.81335e-156
-3.69526e-156
-3.48685e-161
-4.81335e-156
-4.54056e-161
-4.81335e-156
-4.54056e-161
-2.60985e-156
-2.46209e-161
-4.93518e-151
-4.81335e-156
-2.67568e-151
-2.60985e-156
8.94969e-192
6.81727e-197
1.65065e-191
1.25725e-196
6.81727e-197
5.04861e-202
1.25725e-196
9.30995e-202
1.25725e-196
9.30995e-202
9.68305e-197
7.17068e-202
1.65065e-191
1.25725e-196
1.27123e-191
9.68305e-197
5.04861e-202
3.63673e-207
9.30995e-202
6.70586e-207
3.63673e-207
2.54941e-212
6.70586e-207
4.70059e-212
6.70586e-207
4.70059e-212
5.16519e-207
3.62078e-212
9.30995e-202
6.70586e-207
7.17068e-202
5.16519e-207
7.17068e-202
5.16519e-207
3.89666e-202
2.80672e-207
5.16519e-207
3.62078e-212
2.80672e-207
1.96741e-212
2.80672e-207
1.96741e-212
6.29083e-210
4.13098e-215
3.89666e-202
2.80672e-207
9.32464e-205
6.29083e-210
1.27123e-191
9.68305e-197
6.90869e-192
5.26216e-197
9.68305e-197
7.17068e-202
5.26216e-197
3.89666e-202
5.26216e-197
3.89666e-202
1.34463e-199
9.32464e-205
6.90869e-192
5.26216e-197
1.88543e-194
1.34463e-199
2.54941e-212
1.74002e-217
4.70059e-212
3.20803e-217
1.74002e-217
1.15677e-222
3.20803e-217
2.13257e-222
3.20803e-217
2.13257e-222
2.47118e-217
1.64279e-222
4.70059e-212
3.20803e-217
3.62078e-212
2.47118e-217
1.15677e-222
7.49368e-228
2.13257e-222
1.38142e-227
7.49368e-228
4.73229e-233
1.38142e-227
8.72324e-233
1.38142e-227
8.72324e-233
1.06419e-227
6.72022e-233
2.13257e-222
1.38142e-227
1.64279e-222
1.06419e-227
1.64279e-222
1.06419e-227
8.92571e-223
5.78179e-228
1.06419e-227
6.72022e-233
5.78179e-228
3.651e-233
5.78179e-228
3.651e-233
9.99236e-231
5.91588e-236
8.92571e-223
5.78179e-228
1.64567e-225
9.99236e-231
3.62078e-212
2.47118e-217
1.96741e-212
1.3427e-217
2.47118e-217
1.64279e-222
1.3427e-217
8.92571e-223
1.3427e-217
8.92571e-223
2.64159e-220
1.64567e-225
1.96741e-212
1.3427e-217
4.13098e-215
2.64159e-220
4.13098e-215
2.64159e-220
-1.96152e-212
-1.33893e-217
2.64159e-220
1.64567e-225
-1.33893e-217
-8.90218e-223
-1.33893e-217
-8.90218e-223
-2.47105e-217
-1.64271e-222
-1.96152e-212
-1.33893e-217
-3.6206e-212
-2.47105e-217
1.64567e-225
9.99236e-231
-8.90218e-223
-5.7675e-228
9.99236e-231
5.91588e-236
-5.7675e-228
-3.64253e-233
-5.7675e-228
-3.64253e-233
-1.06413e-227
-6.71987e-233
-8.90218e-223
-5.7675e-228
-1.64271e-222
-1.06413e-227
-1.64271e-222
-1.06413e-227
-2.13475e-222
-1.38274e-227
-1.06413e-227
-6.71987e-233
-1.38274e-227
-8.73101e-233
-1.38274e-227
-8.73101e-233
-7.50302e-228
-4.73779e-233
-2.13475e-222
-1.38274e-227
-1.15832e-222
-7.50302e-228
-3.6206e-212
-2.47105e-217
-4.70612e-212
-3.21155e-217
-2.47105e-217
-1.64271e-222
-3.21155e-217