<VTKFile type="UnstructuredGrid" version="0.1" byte_order="LittleEndian">
<UnstructuredGrid>
<Piece NumberOfPoints="2048" NumberOfCells="512">
<Points>
<DataArray type="Float64" NumberOfComponents="3" format="ascii">
0 0 0
0.125 0 0
0 0.125 0
0.125 0.125 0
0.125 0 0
0.25 0 0
0.125 0.125 0
0.25 0.125 0
0.125 0.125 0
0.25 0.125 0
0.125 0.25 0
0.25 0.25 0
0 0.125 0
0.125 0.125 0
0 0.25 0
0.125 0.25 0
0.25 0 0
0.375 0 0
0.25 0.125 0
0.375 0.125 0
0.375 0 0
0.5 0 0
0.375 0.125 0
0.5 0.125 0
0.375 0.125 0
0.5 0.125 0
0.375 0.25 0
0.5 0.25 0
0.25 0.125 0
0.375 0.125 0
0.25 0.25 0
0.375 0.25 0
0.25 0.25 0
0.375 0.25 0
0.25 0.375 0
0.375 0.375 0
0.375 0.25 0
0.5 0.25 0
0.375 0.375 0
0.5 0.375 0
0.375 0.375 0
0.5 0.375 0
0.375 0.5 0
0.5 0.5 0
0.25 0.375 0
0.375 0.375 0
0.25 0.5 0
0.375 0.5 0
0 0.25 0
0.125 0.25 0
0 0.375 0
0.125 0.375 0
0.125 0.25 0
0.25 0.25 0
0.125 0.375 0
0.25 0.375 0
0.125 0.375 0
0.25 0.375 0
0.125 0.5 0
0.25 0.5 0
0 0.375 0
0.125 0.375 0
0 0.5 0
0.125 0.5 0
0.5 0 0
0.625 0 0
0.5 0.125 0
0.625 0.125 0
0.625 0 0
0.75 0 0
0.625 0.125 0
0.75 0.125 0
0.625 0.125 0
0.75 0.125 0
0.625 0.25 0
0.75 0.25 0
0.5 0.125 0
0.625 0.125 0
0.5 0.25 0
0.625 0.25 0
0.75 0 0
0.875 0 0
0.75 0.125 0
0.875 0.125 0
0.875 0 0
1 0 0
0.875 0.125 0
1 0.125 0
0.875 0.125 0
1 0.125 0
0.875 0.25 0
1 0.25 0
0.75 0.125 0
0.875 0.125 0
0.75 0.25 0
0.875 0.25 0
0.75 0.25 0
0.875 0.25 0
0.75 0.375 0
0.875 0.375 0
0.875 0.25 0
1 0.25 0
0.875 0.375 0
1 0.375 0
0.875 0.375 0
1 0.375 0
0.875 0.5 0
1 0.5 0
0.75 0.375 0
0.875 0.375 0
0.75 0.5 0
0.875 0.5 0
0.5 0.25 0
0.625 0.25 0
0.5 0.375 0
0.625 0.375 0
0.625 0.25 0
0.75 0.25 0
0.625 0.375 0
0.75 0.375 0
0.625 0.375 0
0.75 0.375 0
0.625 0.5 0
0.75 0.5 0
0.5 0.375 0
0.625 0.375 0
0.5 0.5 0
0.625 0.5 0
0.5 0.5 0
0.625 0.5 0
0.5 0.625 0
0.625 0.625 0
0.625 0.5 0
0.75 0.5 0
0.625 0.625 0
0.75 0.625 0
0.625 0.625 0
0.75 0.625 0
0.625 0.75 0
0.75 0.75 0
0.5 0.625 0
0.625 0.625 0
0.5 0.75 0
0.625 0.75 0
0.75 0.5 0
0.875 0.5 0
0.75 0.625 0
0.875 0.625 0
0.875 0.5 0
1 0.5 0
0.875 0.625 0
1 0.625 0
0.875 0.625 0
1 0.625 0
0.875 0.75 0
1 0.75 0
0.75 0.625 0
0.875 0.625 0
0.75 0.75 0
0.875 0.75 0
0.75 0.75 0
0.875 0.75 0
0.75 0.875 0
0.875 0.875 0
0.875 0.75 0
1 0.75 0
0.875 0.875 0
1 0.875 0
0.875 0.875 0
1 0.875 0
0.875 1 0
1 1 0
0.75 0.875 0
0.875 0.875 0
0.75 1 0
0.875 1 0
0.5 0.75 0
0.625 0.75 0
0.5 0.875 0
0.625 0.875 0
0.625 0.75 0
0.75 0.75 0
0.625 0.875 0
0.75 0.875 0
0.625 0.875 0
0.75 0.875 0
0.625 1 0
0.75 1 0
0.5 0.875 0
0.625 0.875 0
0.5 1 0
0.625 1 0
0 0.5 0
0.125 0.5 0
0 0.625 0
0.125 0.625 0
0.125 0.5 0
0.25 0.5 0
0.125 0.625 0
0.25 0.625 0
0.125 0.625 0
0.25 0.625 0
0.125 0.75 0
0.25 0.75 0
0 0.625 0
0.125 0.625 0
0 0.75 0
0.125 0.75 0
0.25 0.5 0
0.375 0.5 0
0.25 0.625 0
0.375 0.625 0
0.375 0.5 0
0.5 0.5 0
0.375 0.625 0
0.5 0.625 0
0.375 0.625 0
0.5 0.625 0
0.375 0.75 0
0.5 0.75 0
0.25 0.625 0
0.375 0.625 0
0.25 0.75 0
0.375 0.75 0
0.25 0.75 0
0.375 0.75 0
0.25 0.875 0
0.375 0.875 0
0.375 0.75 0
0.5 0.75 0
0.375 0.875 0
0.5 0.875 0
0.375 0.875 0
0.5 0.875 0
0.375 1 0
0.5 1 0
0.25 0.875 0
0.375 0.875 0
0.25 1 0
0.375 1 0
0 0.75 0
0.125 0.75 0
0 0.875 0
0.125 0.875 0
0.125 0.75 0
0.25 0.75 0
0.125 0.875 0
0.25 0.875 0
0.125 0.875 0
0.25 0.875 0
0.125 1 0
0.25 1 0
0 0.875 0
0.125 0.875 0
0 1 0
0.125 1 0
1 0 0
1.125 0 0
1 0.125 0
1.125 0.125 0
1.125 0 0
1.25 0 0
1.125 0.125 0
1.25 0.125 0
1.125 0.125 0
1.25 0.125 0
1.125 0.25 0
1.25 0.25 0
1 0.125 0
1.125 0.125 0
1 0.25 0
1.125 0.25 0
1.25 0 0
1.375 0 0
1.25 0.125 0
1.375 0.125 0
1.375 0 0
1.5 0 0
1.375 0.125 0
1.5 0.125 0
1.375 0.125 0
1.5 0.125 0
1.375 0.25 0
1.5 0.25 0
1.25 0.125 0
1.375 0.125 0
1.25 0.25 0
1.375 0.25 0
1.25 0.25 0
1.375 0.25 0
1.25 0.375 0
1.375 0.375 0
1.375 0.25 0
1.5 0.25 0
1.375 0.375 0
1.5 0.375 0
1.375 0.375 0
1.5 0.375 0
1.375 0.5 0
1.5 0.5 0
1.25 0.375 0
1.375 0.375 0
1.25 0.5 0
1.375 0.5 0
1 0.25 0
1.125 0.25 0
1 0.375 0
1.125 0.375 0
1.125 0.25 0
1.25 0.25 0
1.125 0.375 0
1.25 0.375 0
1.125 0.375 0
1.25 0.375 0
1.125 0.5 0
1.25 0.5 0
1 0.375 0
1.125 0.375 0
1 0.5 0
1.125 0.5 0
1.5 0 0
1.625 0 0
1.5 0.125 0
1.625 0.125 0
1.625 0 0
1.75 0 0
1.625 0.125 0
1.75 0.125 0
1.625 0.125 0
1.75 0.125 0
1.625 0.25 0
1.75 0.25 0
1.5 0.125 0
1.625 0.125 0
1.5 0.25 0
1.625 0.25 0
1.75 0 0
1.875 0 0
1.75 0.125 0
1.875 0.125 0
1.875 0 0
2 0 0
1.875 0.125 0
2 0.125 0
1.875 0.125 0
2 0.125 0
1.875 0.25 0
2 0.25 0
1.75 0.125 0
1.875 0.125 0
1.75 0.25 0
1.875 0.25 0
1.75 0.25 0
1.875 0.25 0
1.75 0.375 0
1.875 0.375 0
1.875 0.25 0
2 0.25 0
1.875 0.375 0
2 0.375 0
1.875 0.375 0
2 0.375 0
1.875 0.5 0
2 0.5 0
1.75 0.375 0
1.875 0.375 0
1.75 0.5 0
1.875 0.5 0
1.5 0.25 0
1.625 0.25 0
1.5 0.375 0
1.625 0.375 0
1.625 0.25 0
1.75 0.25 0
1.625 0.375 0
1.75 0.375 0
1.625 0.375 0
1.75 0.375 0
1.625 0.5 0
1.75 0.5 0
1.5 0.375 0
1.625 0.375 0
1.5 0.5 0
1.625 0.5 0
1.5 0.5 0
1.625 0.5 0
1.5 0.625 0
1.625 0.625 0
1.625 0.5 0
1.75 0.5 0
1.625 0.625 0
1.75 0.625 0
1.625 0.625 0
1.75 0.625 0
1.625 0.75 0
1.75 0.75 0
1.5 0.625 0
1.625 0.625 0
1.5 0.75 0
1.625 0.75 0
1.75 0.5 0
1.875 0.5 0
1.75 0.625 0
1.875 0.625 0
1.875 0.5 0
2 0.5 0
1.875 0.625 0
2 0.625 0
1.875 0.625 0
2 0.625 0
1.875 0.75 0
2 0.75 0
1.75 0.625 0
1.875 0.625 0
1.75 0.75 0
1.875 0.75 0
1.75 0.75 0
1.875 0.75 0
1.75 0.875 0
1.875 0.875 0
1.875 0.75 0
2 0.75 0
1.875 0.875 0
2 0.875 0
1.875 0.875 0
2 0.875 0
1.875 1 0
2 1 0
1.75 0.875 0
1.875 0.875 0
1.75 1 0
1.875 1 0
1.5 0.75 0
1.625 0.75 0
1.5 0.875 0
1.625 0.875 0
1.625 0.75 0
1.75 0.75 0
1.625 0.875 0
1.75 0.875 0
1.625 0.875 0
1.75 0.875 0
1.625 1 0
1.75 1 0
1.5 0.875 0
1.625 0.875 0
1.5 1 0
1.625 1 0
1 0.5 0
1.125 0.5 0
1 0.625 0
1.125 0.625 0
1.125 0.5 0
1.25 0.5 0
1.125 0.625 0
1.25 0.625 0
1.125 0.625 0
1.25 0.625 0
1.125 0.75 0
1.25 0.75 0
1 0.625 0
1.125 0.625 0
1 0.75 0
1.125 0.75 0
1.25 0.5 0
1.375 0.5 0
1.25 0.625 0
1.375 0.625 0
1.375 0.5 0
1.5 0.5 0
1.375 0.625 0
1.5 0.625 0
1.375 0.625 0
1.5 0.625 0
1.375 0.75 0
1.5 0.75 0
1.25 0.625 0
1.375 0.625 0
1.25 0.75 0
1.375 0.75 0
1.25 0.75 0
1.375 0.75 0
1.25 0.875 0
1.375 0.875 0
1.375 0.75 0
1.5 0.75 0
1.375 0.875 0
1.5 0.875 0
1.375 0.875 0
1.5 0.875 0
1.375 1 0
1.5 1 0
1.25 0.875 0
1.375 0.875 0
1.25 1 0
1.375 1 0
1 0.75 0
1.125 0.75 0
1 0.875 0
1.125 0.875 0
1.125 0.75 0
1.25 0.75 0
1.125 0.875 0
1.25 0.875 0
1.125 0.875 0
1.25 0.875 0
1.125 1 0
1.25 1 0
1 0.875 0
1.125 0.875 0
1 1 0
1.125 1 0
2 0 0
2.125 0 0
2 0.125 0
2.125 0.125 0
2.125 0 0
2.25 0 0
2.125 0.125 0
2.25 0.125 0
2.125 0.125 0
2.25 0.125 0
2.125 0.25 0
2.25 0.25 0
2 0.125 0
2.125 0.125 0
2 0.25 0
2.125 0.25 0
2.25 0 0
2.375 0 0
2.25 0.125 0
2.375 0.125 0
2.375 0 0
2.5 0 0
2.375 0.125 0
2.5 0.125 0
2.375 0.125 0
2.5 0.125 0
2.375 0.25 0
2.5 0.25 0
2.25 0.125 0
2.375 0.125 0
2.25 0.25 0
2.375 0.25 0
2.25 0.25 0
2.375 0.25 0
2.25 0.375 0
2.375 0.375 0
2.375 0.25 0
2.5 0.25 0
2.375 0.375 0
2.5 0.375 0
2.375 0.375 0
2.5 0.375 0
2.375 0.5 0
2.5 0.5 0
2.25 0.375 0
2.375 0.375 0
2.25 0.5 0
2.375 0.5 0
2 0.25 0
2.125 0.25 0
2 0.375 0
2.125 0.375 0
2.125 0.25 0
2.25 0.25 0
2.125 0.375 0
2.25 0.375 0
2.125 0.375 0
2.25 0.375 0
2.125 0.5 0
2.25 0.5 0
2 0.375 0
2.125 0.375 0
2 0.5 0
2.125 0.5 0
2.5 0 0
2.625 0 0
2.5 0.125 0
2.625 0.125 0
2.625 0 0
2.75 0 0
2.625 0.125 0
2.75 0.125 0
2.625 0.125 0
2.75 0.125 0
2.625 0.25 0
2.75 0.25 0
2.5 0.125 0
2.625 0.125 0
2.5 0.25 0
2.625 0.25 0
2.75 0 0
2.875 0 0
2.75 0.125 0
2.875 0.125 0
2.875 0 0
3 0 0
2.875 0.125 0
3 0.125 0
2.875 0.125 0
3 0.125 0
2.875 0.25 0
3 0.25 0
2.75 0.125 0
2.875 0.125 0
2.75 0.25 0
2.875 0.25 0
2.75 0.25 0
2.875 0.25 0
2.75 0.375 0
2.875 0.375 0
2.875 0.25 0
3 0.25 0
2.875 0.375 0
3 0.375 0
2.875 0.375 0
3 0.375 0
2.875 0.5 0
3 0.5 0
2.75 0.375 0
2.875 0.375 0
2.75 0.5 0
2.875 0.5 0
2.5 0.25 0
2.625 0.25 0
2.5 0.375 0
2.625 0.375 0
2.625 0.25 0
2.75 0.25 0
2.625 0.375 0
2.75 0.375 0
2.625 0.375 0
2.75 0.375 0
2.625 0.5 0
2.75 0.5 0
2.5 0.375 0
2.625 0.375 0
2.5 0.5 0
2.625 0.5 0
2.5 0.5 0
2.625 0.5 0
2.5 0.625 0
2.625 0.625 0
2.625 0.5 0
2.75 0.5 0
2.625 0.625 0
2.75 0.625 0
2.625 0.625 0
2.75 0.625 0
2.625 0.75 0
2.75 0.75 0
2.5 0.625 0
2.625 0.625 0
2.5 0.75 0
2.625 0.75 0
2.75 0.5 0
2.875 0.5 0
2.75 0.625 0
2.875 0.625 0
2.875 0.5 0
3 0.5 0
2.875 0.625 0
3 0.625 0
2.875 0.625 0
3 0.625 0
2.875 0.75 0
3 0.75 0
2.75 0.625 0
2.875 0.625 0
2.75 0.75 0
2.875 0.75 0
2.75 0.75 0
2.875 0.75 0
2.75 0.875 0
2.875 0.875 0
2.875 0.75 0
3 0.75 0
2.875 0.875 0
3 0.875 0
2.875 0.875 0
3 0.875 0
2.875 1 0
3 1 0
2.75 0.875 0
2.875 0.875 0
2.75 1 0
2.875 1 0
2.5 0.75 0
2.625 0.75 0
2.5 0.875 0
2.625 0.875 0
2.625 0.75 0
2.75 0.75 0
2.625 0.875 0
2.75 0.875 0
2.625 0.875 0
2.75 0.875 0
2.625 1 0
2.75 1 0
2.5 0.875 0
2.625 0.875 0
2.5 1 0
2.625 1 0
2 0.5 0
2.125 0.5 0
2 0.625 0
2.125 0.625 0
2.125 0.5 0
2.25 0.5 0
2.125 0.625 0
2.25 0.625 0
2.125 0.625 0
2.25 0.625 0
2.125 0.75 0
2.25 0.75 0
2 0.625 0
2.125 0.625 0
2 0.75 0
2.125 0.75 0
2.25 0.5 0
2.375 0.5 0
2.25 0.625 0
2.375 0.625 0
2.375 0.5 0
2.5 0.5 0
2.375 0.625 0
2.5 0.625 0
2.375 0.625 0
2.5 0.625 0
2.375 0.75 0
2.5 0.75 0
2.25 0.625 0
2.375 0.625 0
2.25 0.75 0
2.375 0.75 0
2.25 0.75 0
2.375 0.75 0
2.25 0.875 0
2.375 0.875 0
2.375 0.75 0
2.5 0.75 0
2.375 0.875 0
2.5 0.875 0
2.375 0.875 0
2.5 0.875 0
2.375 1 0
2.5 1 0
2.25 0.875 0
2.375 0.875 0
2.25 1 0
2.375 1 0
2 0.75 0
2.125 0.75 0
2 0.875 0
2.125 0.875 0
2.125 0.75 0
2.25 0.75 0
2.125 0.875 0
2.25 0.875 0
2.125 0.875 0
2.25 0.875 0
2.125 1 0
2.25 1 0
2 0.875 0
2.125 0.875 0
2 1 0
2.125 1 0
3 0 0
3.125 0 0
3 0.125 0
3.125 0.125 0
3.125 0 0
3.25 0 0
3.125 0.125 0
3.25 0.125 0
3.125 0.125 0
3.25 0.125 0
3.125 0.25 0
3.25 0.25 0
3 0.125 0
3.125 0.125 0
3 0.25 0
3.125 0.25 0
3.25 0 0
3.375 0 0
3.25 0.125 0
3.375 0.125 0
3.375 0 0
3.5 0 0
3.375 0.125 0
3.5 0.125 0
3.375 0.125 0
3.5 0.125 0
3.375 0.25 0
3.5 0.25 0
3.25 0.125 0
3.375 0.125 0
3.25 0.25 0
3.375 0.25 0
3.25 0.25 0
3.375 0.25 0
3.25 0.375 0
3.375 0.375 0
3.375 0.25 0
3.5 0.25 0
3.375 0.375 0
3.5 0.375 0
3.375 0.375 0
3.5 0.375 0
3.375 0.5 0
3.5 0.5 0
3.25 0.375 0
3.375 0.375 0
3.25 0.5 0
[...]
<CellData Scalars="attribute">
<DataArray type="Int32" Name="attribute" format="ascii">
1
1
1
1
1
1
1
1
1
1
1
1
1
1
1
1
1
1
1
1
1
1
1
1
1
1
1
1
1
1
1
1
1
1
1
1
1
1
1
1
1
1
1
1
1
1
1
1
1
1
1
1
1
1
1
1
1
1
1
1
1
1
1
1
1
1
1
1
1
1
1
1
1
1
1
1
1
1
1
1
1
1
1
1
1
1
1
1
1
1
1
1
1
1
1
1
1
1
1
1
1
1
1
1
1
1
1
1
1
1
1
1
1
1
1
1
1
1
1
1
1
1
1
1
1
1
1
1
1
1
1
1
1
1
1
1
1
1
1
1
1
1
1
1
1
1
1
1
1
1
1
1
1
1
1
1
1
1
1
1
1
1
1
1
1
1
1
1
1
1
1
1
1
1
1
1
1
1
1
1
1
1
1
1
1
1
1
1
1
1
1
1
1
1
1
1
1
1
1
1
1
1
1
1
1
1
1
1
1
1
1
1
1
1
1
1
1
1
1
1
1
1
1
1
1
1
1
1
1
1
1
1
1
1
1
1
1
1
1
1
1
1
1
1
1
1
1
1
1
1
1
1
1
1
1
1
2
2
2
2
2
2
2
2
2
2
2
2
2
2
2
2
2
2
2
2
2
2
2
2
2
2
2
2
2
2
2
2
2
2
2
2
2
2
2
2
2
2
2
2
2
2
2
2
2
2
2
2
2
2
2
2
2
2
2
2
2
2
2
2
2
2
2
2
2
2
2
2
2
2
2
2
2
2
2
2
2
2
2
2
2
2
2
2
2
2
2
2
2
2
2
2
2
2
2
2
2
2
2
2
2
2
2
2
2
2
2
2
2
2
2
2
2
2
2
2
2
2
2
2
2
2
2
2
2
2
2
2
2
2
2
2
2
2
2
2
2
2
2
2
2
2
2
2
2
2
2
2
2
2
2
2
2
2
2
2
2
2
2
2
2
2
2
2
2
2
2
2
2
2
2
2
2
2
2
2
2
2
2
2
2
2
2
2
2
2
2
2
2
2
2
2
2
2
2
2
2
2
2
2
2
2
2
2
2
2
2
2
2
2
2
2
2
2
2
2
2
2
2
2
2
2
2
2
2
2
2
2
2
2
2
2
2
2
2
2
2
2
2
2
2
2
2
2
2
2
2
2
2
2
2
2
</DataArray>
</CellData>
<PointData >
<DataArray type="Float64" Name="Pressure" NumberOfComponents="1" format="ascii" >
-8.50901e-05
-3.81186e-08
-0.00013924
-6.30993e-08
-3.81186e-08
7.34179e-13
-6.30993e-08
1.27136e-12
-6.30993e-08
1.27136e-12
-4.23612e-08
8.63346e-13
-0.00013924
-6.30993e-08
-9.28267e-05
-4.23612e-08
7.34179e-13
-9.11948e-18
1.27136e-12
-1.6281e-17
-9.11948e-18
1.15303e-22
-1.6281e-17
2.1341e-22
-1.6281e-17
2.1341e-22
-1.13358e-17
1.52612e-22
1.27136e-12
-1.6281e-17
8.63346e-13
-1.13358e-17
8.63346e-13
-1.13358e-17
4.42424e-13
-5.79237e-18
-1.13358e-17
1.52612e-22
-5.79237e-18
7.80641e-23
-5.79237e-18
7.80641e-23
-1.91632e-19
2.47545e-24
4.42424e-13
-5.79237e-18
1.5585e-14
-1.91632e-19
-9.28267e-05
-4.23612e-08
-4.64138e-05
-2.15108e-08
-4.23612e-08
8.63346e-13
-2.15108e-08
4.42424e-13
-2.15108e-08
4.42424e-13
-4.76367e-10
1.5585e-14
-4.64138e-05
-2.15108e-08
-5.86247e-10
-4.76367e-10
1.15303e-22
-7.55122e-28
2.1341e-22
-1.44842e-27
-7.55122e-28
8.51757e-33
-1.44842e-27
1.64294e-32
-1.44842e-27
1.64294e-32
-1.07287e-27
1.23442e-32
2.1341e-22
-1.44842e-27
1.52612e-22
-1.07287e-27
8.51757e-33
-2.33448e-38
1.64294e-32
-4.96282e-38
-2.33448e-38
3.96648e-43
-4.96282e-38
7.76577e-43
-4.96282e-38
7.76577e-43
-4.01126e-38
6.01342e-43
1.64294e-32
-4.96282e-38
1.23442e-32
-4.01126e-38
1.23442e-32
-4.01126e-38
6.41744e-33
-2.1149e-38
-4.01126e-38
6.01342e-43
-2.1149e-38
3.19339e-43
-2.1149e-38
3.19339e-43
-6.09357e-40
8.13018e-45
6.41744e-33
-2.1149e-38
1.84027e-34
-6.09357e-40
1.52612e-22
-1.07287e-27
7.80641e-23
-5.52163e-28
-1.07287e-27
1.23442e-32
-5.52163e-28
6.41744e-33
-5.52163e-28
6.41744e-33
-1.68564e-29
1.84027e-34
7.80641e-23
-5.52163e-28
2.47545e-24
-1.68564e-29
2.47545e-24
-1.68564e-29
-7.4167e-23
5.2589e-28
-1.68564e-29
1.84027e-34
5.2589e-28
-6.13667e-33
5.2589e-28
-6.13667e-33
1.06903e-27
-1.23116e-32
-7.4167e-23
5.2589e-28
-1.51895e-22
1.06903e-27
1.84027e-34
-6.09357e-40
-6.13667e-33
2.02257e-38
-6.09357e-40
8.13018e-45
2.02257e-38
-3.07285e-43
2.02257e-38
-3.07285e-43
4.00044e-38
-6.00369e-43
-6.13667e-33
2.02257e-38
-1.23116e-32
4.00044e-38
-1.23116e-32
4.00044e-38
-1.66915e-32
5.03839e-38
4.00044e-38
-6.00369e-43
5.03839e-38
-7.87442e-43
5.03839e-38
-7.87442e-43
2.3854e-38
-4.04325e-43
-1.66915e-32
5.03839e-38
-8.70924e-33
2.3854e-38
-1.51895e-22
1.06903e-27
-2.17213e-22
1.47306e-27
1.06903e-27
-1.23116e-32
1.47306e-27
-1.66915e-32
1.47306e-27
-1.66915e-32
7.73443e-28
-8.70924e-33
-2.17213e-22
1.47306e-27
-1.18334e-22
7.73443e-28
-5.86247e-10
-4.76367e-10
4.64128e-05
2.07419e-08
-4.76367e-10
1.5585e-14
2.07419e-08
-4.17327e-13
2.07419e-08
-4.17327e-13
4.21442e-08
-8.56451e-13
4.64128e-05
2.07419e-08
9.28265e-05
4.21442e-08
1.5585e-14
-1.91632e-19
-4.17327e-13
5.48687e-18
-1.91632e-19
2.47545e-24
5.48687e-18
-7.4167e-23
5.48687e-18
-7.4167e-23
1.12647e-17
-1.51895e-22
-4.17327e-13
5.48687e-18
-8.56451e-13
1.12647e-17
-8.56451e-13
1.12647e-17
-1.29487e-12
1.65838e-17
1.12647e-17
-1.51895e-22
1.65838e-17
-2.17213e-22
1.65838e-17
-2.17213e-22
9.37727e-18
-1.18334e-22
-1.29487e-12
1.65838e-17
-7.58251e-13
9.37727e-18
9.28265e-05
4.21442e-08
0.00013924
6.38093e-08
4.21442e-08
-8.56451e-13
6.38093e-08
-1.29487e-12
6.38093e-08
-1.29487e-12
3.88708e-08
-7.58251e-13
0.00013924
6.38093e-08
8.5091e-05
3.88708e-08
3.96648e-43
1.77113e-49
7.76577e-43
5.97865e-50
1.77113e-49
1.38957e-53
5.97865e-50
2.69653e-53
5.97865e-50
2.69653e-53
-1.20926e-49
2.10449e-53
7.76577e-43
5.97865e-50
6.01342e-43
-1.20926e-49
1.38957e-53
3.79568e-59
2.69653e-53
6.42162e-59
3.79568e-59
3.88386e-64
6.42162e-59
7.40141e-64
6.42162e-59
7.40141e-64
4.43086e-59
5.74519e-64
2.69653e-53
6.42162e-59
2.10449e-53
4.43086e-59
2.10449e-53
4.43086e-59
1.1342e-53
2.30933e-59
4.43086e-59
5.74519e-64
2.30933e-59
3.11514e-64
2.30933e-59
3.11514e-64
3.88034e-61
5.92597e-66
1.1342e-53
2.30933e-59
2.51285e-55
3.88034e-61
6.01342e-43
-1.20926e-49
3.19339e-43
-8.14803e-50
-1.20926e-49
2.10449e-53
-8.14803e-50
1.1342e-53
-8.14803e-50
1.1342e-53
-4.5239e-51
2.51285e-55
3.19339e-43
-8.14803e-50
8.13018e-45
-4.5239e-51
3.88386e-64
1.45088e-69
7.40141e-64
2.60057e-69
1.45088e-69
8.452e-75
2.60057e-69
1.58752e-74
2.60057e-69
1.58752e-74
1.91047e-69
1.2238e-74
7.40141e-64
2.60057e-69
5.74519e-64
1.91047e-69
8.452e-75
3.21837e-80
1.58752e-74
5.8762e-80
3.21837e-80
1.38404e-85
5.8762e-80
2.5782e-85
5.8762e-80
2.5782e-85
4.41403e-80
1.97989e-85
1.58752e-74
5.8762e-80
1.2238e-74
4.41403e-80
1.2238e-74
4.41403e-80
6.64479e-75
2.3731e-80
4.41403e-80
1.97989e-85
2.3731e-80
1.07524e-85
2.3731e-80
1.07524e-85
3.41292e-82
1.50631e-87
6.64479e-75
2.3731e-80
1.08257e-76
3.41292e-82
5.74519e-64
1.91047e-69
3.11514e-64
1.01723e-69
1.91047e-69
1.2238e-74
1.01723e-69
6.64479e-75
1.01723e-69
6.64479e-75
1.63434e-71
1.08257e-76
3.11514e-64
1.01723e-69
5.92597e-66
1.63434e-71
5.92597e-66
1.63434e-71
-3.02984e-64
-9.94104e-70
1.63434e-71
1.08257e-76
-9.94104e-70
-6.49007e-75
-9.94104e-70
-6.49007e-75
-1.9111e-69
-1.22337e-74
-3.02984e-64
-9.94104e-70
-5.74157e-64
-1.9111e-69
1.08257e-76
3.41292e-82
-6.49007e-75
-2.32483e-80
3.41292e-82
1.50631e-87
-2.32483e-80
-1.0538e-85
-2.32483e-80
-1.0538e-85
-4.41472e-80
-1.97954e-85
-6.49007e-75
-2.32483e-80
-1.22337e-74
-4.41472e-80
-1.22337e-74
-4.41472e-80
-1.60212e-74
-5.92709e-80
-4.41472e-80
-1.97954e-85
-5.92709e-80
-2.59891e-85
-5.92709e-80
-2.59891e-85
-3.25463e-80
-1.39873e-85
-1.60212e-74
-5.92709e-80
-8.55548e-75
-3.25463e-80
-5.74157e-64
-1.9111e-69
-7.47959e-64
-2.62636e-69
-1.9111e-69
-1.22337e-74
-2.62636e-69
-1.60212e-74
-2.62636e-69
-1.60212e-74
-1.46949e-69
-8.55548e-75
-7.47959e-64
-2.62636e-69
-3.93904e-64
-1.46949e-69
8.13018e-45
-4.5239e-51
-3.07285e-43
7.44062e-50
-4.5239e-51
2.51285e-55
7.44062e-50
-1.09763e-53
7.44062e-50
-1.09763e-53
1.1869e-49
-2.10231e-53
-3.07285e-43
7.44062e-50
-6.00369e-43
1.1869e-49
2.51285e-55
3.88034e-61
-1.09763e-53
-2.2547e-59
3.88034e-61
5.92597e-66
-2.2547e-59
-3.02984e-64
-2.2547e-59
-3.02984e-64
-4.43499e-59
-5.74157e-64
-1.09763e-53
-2.2547e-59
-2.10231e-53
-4.43499e-59
-2.10231e-53
-4.43499e-59
-2.72932e-53
-6.49409e-59
-4.43499e-59
-5.74157e-64
-6.49409e-59
-7.47959e-64
-6.49409e-59
-7.47959e-64
-3.85009e-59
-3.93904e-64
-2.72932e-53
-6.49409e-59
-1.41261e-53
-3.85009e-59
-6.00369e-43
1.1869e-49
-7.87442e-43
-6.00731e-50
1.1869e-49
-2.10231e-53
-6.00731e-50
-2.72932e-53
-6.00731e-50
-2.72932e-53
-1.78841e-49
-1.41261e-53
-7.87442e-43
-6.00731e-50
-4.04325e-43
-1.78841e-49
1.38404e-85
4.82173e-91
2.5782e-85
8.86881e-91
4.82173e-91
1.67826e-96
8.86881e-91
3.11347e-96
8.86881e-91
3.11347e-96
6.73283e-91
2.38807e-96
2.5782e-85
8.86881e-91
1.97989e-85
6.73283e-91
1.67826e-96
5.13873e-102
3.11347e-96
9.4804e-102
5.13873e-102
1.50014e-107
9.4804e-102
2.77753e-107
9.4804e-102
2.77753e-107
7.23724e-102
2.13068e-107
3.11347e-96
9.4804e-102
2.38807e-96
7.23724e-102
2.38807e-96
7.23724e-102
1.29719e-96
3.92271e-102
7.23724e-102
2.13068e-107
3.92271e-102
1.15774e-107
3.92271e-102
1.15774e-107
4.36231e-104
1.21644e-109
1.29719e-96
3.92271e-102
1.57064e-98
4.36231e-104
1.97989e-85
6.73283e-91
1.07524e-85
3.63877e-91
6.73283e-91
2.38807e-96
3.63877e-91
1.29719e-96
3.63877e-91
1.29719e-96
4.61465e-93
1.57064e-98
1.07524e-85
3.63877e-91
1.50631e-87
4.61465e-93
1.50014e-107
3.97496e-113
2.77753e-107
7.34173e-113
3.97496e-113
9.85262e-119
7.34173e-113
1.82237e-118
7.34173e-113
1.82237e-118
5.62209e-113
1.39883e-118
2.77753e-107
7.34173e-113
2.13068e-107
5.62209e-113
9.85262e-119
2.23894e-124
1.82237e-118
4.13661e-124
2.23894e-124
4.70952e-130
4.13661e-124
8.70559e-130
4.13661e-124
8.70559e-130
3.17359e-124
6.68701e-130
1.82237e-118
4.13661e-124
1.39883e-118
3.17359e-124
1.39883e-118
3.17359e-124
7.60301e-119
1.72433e-124
3.17359e-124
6.68701e-130
1.72433e-124
3.63533e-130
1.72433e-124
3.63533e-130
1.46621e-126
2.89715e-132
7.60301e-119
1.72433e-124
6.95113e-121
1.46621e-126
2.13068e-107
5.62209e-113
1.15774e-107
3.05211e-113
5.62209e-113
1.39883e-118
3.05211e-113
7.60301e-119
3.05211e-113
7.60301e-119
2.96929e-115
6.95113e-121
1.15774e-107
3.05211e-113
1.21644e-109
2.96929e-115
1.21644e-109
2.96929e-115
-1.1405e-107
-3.01012e-113
2.96929e-115
6.95113e-121
-3.01012e-113
-7.50459e-119
-3.01012e-113
-7.50459e-119
-5.62217e-113
-1.3988e-118
-1.1405e-107
-3.01012e-113
-2.13058e-107
-5.62217e-113
6.95113e-121
1.46621e-126
-7.50459e-119
-1.70359e-124
1.46621e-126
2.89715e-132
-1.70359e-124
-3.59432e-130
-1.70359e-124
-3.59432e-130
-3.17359e-124
-6.68687e-130
-7.50459e-119
-1.70359e-124
-1.3988e-118
-3.17359e-124
-1.3988e-118
-3.17359e-124
-1.83211e-118
-4.15728e-124
-3.17359e-124
-6.68687e-130
-4.15728e-124
-8.74616e-130
-4.15728e-124
-8.74616e-130
-2.25357e-124
-4.73826e-130
-1.83211e-118
-4.15728e-124
-9.92161e-119
-2.25357e-124
-2.13058e-107
-5.62217e-113
-2.79453e-107
-7.38381e-113
-5.62217e-113
-1.3988e-118
-7.38381e-113
-1.83211e-118
-7.38381e-113
-1.83211e-118
-4.00476e-113
-9.92161e-119
-2.79453e-107
-7.38381e-113
-1.51219e-107
-4.00476e-113
1.50631e-87
4.61465e-93
-1.0538e-85
-3.57353e-91
4.61465e-93
1.57064e-98
-3.57353e-91
-1.2749e-96
-3.57353e-91
-1.2749e-96
-6.73336e-91
-2.38786e-96
-1.0538e-85
-3.57353e-91
-1.97954e-85
-6.73336e-91
1.57064e-98
4.36231e-104
-1.2749e-96
-3.86104e-102
4.36231e-104
1.21644e-109
-3.86104e-102
-1.1405e-107
-3.86104e-102
-1.1405e-107
-7.2375e-102
-2.13058e-107
-1.2749e-96
-3.86104e-102
-2.38786e-96
-7.2375e-102
-2.38786e-96
-7.2375e-102
-3.13531e-96
-9.54276e-102
-7.2375e-102
-2.13058e-107
-9.54276e-102
-2.79453e-107
-9.54276e-102
-2.79453e-107
-5.1829e-102
-1.51219e-107
-3.13531e-96
-9.54276e-102
-1.69374e-96
-5.1829e-102
-1.97954e-85
-6.73336e-91
-2.59891e-85
-8.93575e-91
-6.73336e-91
-2.38786e-96
-8.93575e-91
-3.13531e-96
-8.93575e-91
-3.13531e-96
-4.86922e-91
-1.69374e-96
-2.59891e-85
-8.93575e-91
-1.39873e-85
-4.86922e-91
4.70952e-130
9.07202e-136
8.70559e-130
1.67605e-135
9.07202e-136
1.59909e-141
1.67605e-135
2.95466e-141
1.67605e-135
2.95466e-141
1.28737e-135
2.27099e-141
8.70559e-130
1.67605e-135
6.68701e-130
1.28737e-135
1.59909e-141
2.55067e-147
2.95466e-141
4.71142e-147
2.55067e-147
3.63813e-153
4.71142e-147
6.71986e-153
4.71142e-147
6.71986e-153
3.62169e-147
5.16764e-153
2.95466e-141
4.71142e-147
2.27099e-141
3.62169e-147
2.27099e-141
3.62169e-147
1.23475e-141
1.96901e-147
3.62169e-147
5.16764e-153
1.96901e-147
2.80976e-153
1.96901e-147
2.80976e-153
1.27854e-149
1.70687e-155
1.23475e-141
1.96901e-147
8.58764e-144
1.27854e-149
6.68701e-130
1.28737e-135
3.63533e-130
6.99776e-136
1.28737e-135
2.27099e-141
6.99776e-136
1.23475e-141
6.99776e-136
1.23475e-141
5.19946e-138
8.58764e-144
3.63533e-130
6.99776e-136
2.89715e-132
5.19946e-138
3.63813e-153
4.52387e-159
6.71986e-153
8.3541e-159
4.52387e-159
4.66391e-165
8.3541e-159
8.61188e-165
8.3541e-159
8.61188e-165
6.42537e-159
6.62533e-165
6.71986e-153
8.3541e-159
5.16764e-153
6.42537e-159
4.66391e-165
3.44625e-171
8.61188e-165
6.36242e-171
3.44625e-171
5.33935e-178
6.36242e-171
9.85629e-178
6.36242e-171
9.85629e-178
4.89547e-171
7.5851e-178
8.61188e-165
6.36242e-171
6.62533e-165
4.89547e-171
6.62533e-165
4.89547e-171
3.60226e-165
2.6616e-171
4.89547e-171
7.5851e-178
2.6616e-171
4.12383e-178
2.6616e-171
4.12383e-178
1.32111e-173
1.91479e-180
3.60226e-165
2.6616e-171
1.91258e-167
1.32111e-173
5.16764e-153
6.42537e-159
2.80976e-153
3.49348e-159
6.42537e-159
6.62533e-165
3.49348e-159
3.60226e-165
3.49348e-159
3.60226e-165
1.98294e-161
1.91258e-167
2.80976e-153
3.49348e-159
1.70687e-155
1.98294e-161
1.70687e-155
1.98294e-161
-2.78559e-153
-3.46539e-159
1.98294e-161
1.91258e-167
-3.46539e-159
-3.57516e-165
-3.46539e-159
-3.57516e-165
-6.42521e-159
-6.62514e-165
-2.78559e-153
-3.46539e-159
-5.16751e-153
-6.42521e-159
1.91258e-167
1.32111e-173
-3.57516e-165
-2.64288e-171
1.32111e-173
1.91479e-180
-2.64288e-171
-4.09668e-178
-2.64288e-171
-4.09668e-178
-4.89533e-171
-7.58485e-178
-3.57516e-165
-2.64288e-171
-6.62514e-165
-4.89533e-171
-6.62514e-165
-4.89533e-171
-8.6385e-165
-6.38079e-171
-4.89533e-171
-7.58485e-178
-6.38079e-171
-9.88285e-178
-6.38079e-171
-9.88285e-178
-3.45925e-171
-5.35815e-178
-8.6385e-165
-6.38079e-171
-4.68276e-165
-3.45925e-171
-5.16751e-153
-6.42521e-159
-6.74368e-153
-8.38176e-159
-6.42521e-159
-6.62514e-165
-8.38176e-159
-8.6385e-165
-8.38176e-159
-8.6385e-165
-4.54346e-159
-4.68276e-165
-6.74368e-153
-8.38176e-159
-3.655e-153
-4.54346e-159
2.89715e-132
5.19946e-138
-3.59432e-130
-6.9242e-136
5.19946e-138
8.58764e-144
-6.9242e-136
-1.22259e-141
-6.9242e-136
-1.22259e-141
-1.28736e-135
-2.27094e-141
-3.59432e-130
-6.9242e-136
-6.68687e-130
-1.28736e-135
8.58764e-144
1.27854e-149
-1.22259e-141
-1.95091e-147
1.27854e-149
1.70687e-155
-1.95091e-147
-2.78559e-153
-1.95091e-147
-2.78559e-153
-3.62162e-147
-5.16751e-153
-1.22259e-141
-1.95091e-147
-2.27094e-141
-3.62162e-147
-2.27094e-141
-3.62162e-147
-2.96667e-141
-4.72931e-147
-3.62162e-147
-5.16751e-153
-4.72931e-147
-6.74368e-153
-4.72931e-147
-6.74368e-153
-2.56334e-147
-3.655e-153
-2.96667e-141
-4.72931e-147
-1.6076e-141
-2.56334e-147
-6.68687e-130
-1.28736e-135
-8.74616e-130
-1.68335e-135
-1.28736e-135
-2.27094e-141
-1.68335e-135
-2.96667e-141
-1.68335e-135
-2.96667e-141
-9.12372e-136
-1.6076e-141
-8.74616e-130
-1.68335e-135
-4.73826e-130
-9.12372e-136
5.33935e-178
-3.70886e-183
9.85629e-178
-6.84553e-183
-3.70886e-183
-7.95398e-189
-6.84553e-183
-1.46792e-188
-6.84553e-183
-1.46792e-188
-5.26877e-183
-1.12995e-188
9.85629e-178
-6.84553e-183
7.5851e-178
-5.26877e-183
-7.95398e-189
-1.01566e-194
-1.46792e-188
-1.87418e-194
-1.01566e-194
-8.47439e-201
-1.87418e-194
-1.5636e-200
-1.87418e-194
-1.5636e-200
-1.44282e-194
-1.20384e-200
-1.46792e-188
-1.87418e-194
-1.12995e-188
-1.44282e-194
-1.12995e-188
-1.44282e-194
-6.14272e-189
-7.84319e-195
-1.44282e-194
-1.20384e-200
-7.84319e-195
-6.54377e-201
-7.84319e-195
-6.54377e-201
-2.98063e-197
-2.32697e-203
-6.14272e-189
-7.84319e-195
-2.49535e-191
-2.98063e-197
7.5851e-178
-5.26877e-183
4.12383e-178
-2.86436e-183
-5.26877e-183
-1.12995e-188
-2.86436e-183
-6.14272e-189
-2.86436e-183
-6.14272e-189
-1.24375e-185
-2.49535e-191
4.12383e-178
-2.86436e-183
1.91479e-180
-1.24375e-185
-8.47439e-201
-2.56054e-207
-1.5636e-200
-4.72391e-207
-2.56054e-207
5.56454e-213
-4.72391e-207
1.02649e-212
-4.72391e-207
1.02649e-212
-3.63731e-207
7.9044e-213
-1.5636e-200
-4.72391e-207
-1.20384e-200
-3.63731e-207
5.56454e-213
1.19577e-218
1.02649e-212
2.20564e-218
1.19577e-218
1.27527e-224
2.20564e-218
2.35206e-224
2.20564e-218
2.35206e-224
1.69854e-218
1.8114e-224
1.02649e-212
2.20564e-218
7.9044e-213
1.69854e-218
7.9044e-213
1.69854e-218
4.2962e-213
9.23142e-219
1.69854e-218
1.8114e-224
9.23142e-219
9.84437e-225
9.23142e-219
9.84437e-225
2.69116e-221
2.68675e-227
4.2962e-213
9.23142e-219
1.33801e-215
2.69116e-221
-1.20384e-200
-3.63731e-207
-6.54377e-201
-1.97705e-207
-3.63731e-207
7.9044e-213
-1.97705e-207
4.2962e-213
-1.97705e-207
4.2962e-213
-6.57895e-210
1.33801e-215
-6.54377e-201
-1.97705e-207
-2.32697e-203
-6.57895e-210
-2.32697e-203
-6.57895e-210
6.51073e-201
1.9677e-207
-6.57895e-210
1.33801e-215
1.9677e-207
-4.27718e-213
1.9677e-207
-4.27718e-213
3.63716e-207
-7.90406e-213
6.51073e-201
1.9677e-207
1.20379e-200
3.63716e-207
1.33801e-215
2.69116e-221
-4.27718e-213
-9.19315e-219
2.69116e-221
2.68675e-227
-9.19315e-219
-9.80613e-225
-9.19315e-219
-9.80613e-225
-1.69846e-218
-1.81132e-224
-4.27718e-213
-9.19315e-219
-7.90406e-213
-1.69846e-218
-7.90406e-213
-1.69846e-218
-1.02832e-212
-2.20931e-218
-1.69846e-218
-1.81132e-224
-2.20931e-218
-2.35571e-224
-2.20931e-218
-2.35571e-224
-1.19837e-218
-1.27786e-224
-1.02832e-212
-2.20931e-218
-5.5775e-213
-1.19837e-218
1.20379e-200
3.63716e-207
1.5668e-200
4.73294e-207
3.63716e-207
-7.90406e-213
4.73294e-207
-1.02832e-212
4.73294e-207
-1.02832e-212
2.56693e-207
-5.5775e-213
1.5668e-200
4.73294e-207
8.49705e-201
2.56693e-207
1.91479e-180
-1.24375e-185
-4.09668e-178
2.84673e-183
-1.24375e-185
-2.49535e-191
2.84673e-183
6.10732e-189
2.84673e-183
6.10732e-189
5.26859e-183
1.12991e-188
-4.09668e-178
2.84673e-183
-7.58485e-178
5.26859e-183
-2.49535e-191
-2.98063e-197
6.10732e-189
7.80089e-195
-2.98063e-197
-2.32697e-203
7.80089e-195
6.51073e-201
7.80089e-195
6.51073e-201
1.44277e-194
1.20379e-200
6.10732e-189
7.80089e-195
1.12991e-188
1.44277e-194
1.12991e-188
1.44277e-194
1.47136e-188
1.87829e-194
1.44277e-194
1.20379e-200
1.87829e-194
1.5668e-200
1.87829e-194
1.5668e-200
1.01857e-194
8.49705e-201
1.47136e-188
1.87829e-194
7.9784e-189
1.01857e-194
-7.58485e-178
5.26859e-183
-9.88285e-178
6.86275e-183
5.26859e-183
1.12991e-188
6.86275e-183
1.47136e-188
6.86275e-183
1.47136e-188
3.72106e-183
7.9784e-189
-9.88285e-178
6.86275e-183
-5.35815e-178
3.72106e-183
1.27527e-224
6.76662e-231
2.35206e-224
1.2479e-230
6.76662e-231
-3.10716e-237
1.2479e-230
-5.72979e-237
1.2479e-230
-5.72979e-237
9.61107e-231
-4.41317e-237
2.35206e-224
1.2479e-230
1.8114e-224
9.61107e-231
-3.10716e-237
-1.11539e-242
-5.72979e-237
-2.0567e-242
-1.11539e-242
-1.23981e-248
-2.0567e-242
-2.28594e-248
-2.0567e-242
-2.28594e-248
-1.58417e-242
-1.76082e-248
-5.72979e-237
-2.0567e-242
-4.41317e-237
-1.58417e-242
-4.41317e-237
-1.58417e-242
-2.39818e-237
-8.60824e-243
-1.58417e-242
-1.76082e-248
-8.60824e-243
-9.5677e-249
-8.60824e-243
-9.5677e-249
-1.9295e-245
-2.00904e-251
-2.39818e-237
-8.60824e-243
-5.73901e-240
-1.9295e-245
1.8114e-224
9.61107e-231
9.84437e-225
5.22304e-231
9.61107e-231
-4.41317e-237
5.22304e-231
-2.39818e-237
5.22304e-231
-2.39818e-237
1.33472e-233
-5.73901e-240
9.84437e-225
5.22304e-231
2.68675e-227
1.33472e-233
-1.23981e-248
-6.13982e-255
-2.28594e-248
-1.13198e-254
-6.13982e-255
3.30517e-261
-1.13198e-254
6.09325e-261
-1.13198e-254
6.09325e-261
-8.71972e-255
4.69385e-261
-2.28594e-248
-1.13198e-254
-1.76082e-248
-8.71972e-255
3.30517e-261
9.56471e-267
6.09325e-261
1.7632e-266
9.56471e-267
8.81445e-273
1.7632e-266
1.6248e-272
1.7632e-266
1.6248e-272
1.3583e-266
1.25172e-272
6.09325e-261
1.7632e-266
4.69385e-261
1.3583e-266
4.69385e-261
1.3583e-266
2.55028e-261
7.37968e-267
1.3583e-266
1.25172e-272
7.37968e-267
6.80039e-273
7.37968e-267
6.80039e-273
1.27545e-269
1.10196e-275
2.55028e-261
7.37968e-267
4.70223e-264
1.27545e-269
-1.76082e-248
-8.71972e-255
-9.5677e-249
-4.73782e-255
-8.71972e-255
4.69385e-261
-4.73782e-255
2.55028e-261
-4.73782e-255
2.55028e-261
-9.3216e-258
4.70223e-264
-9.5677e-249
-4.73782e-255
-2.00904e-251
-9.3216e-258
-2.00904e-251
-9.3216e-258
9.53903e-249
4.72451e-255
-9.3216e-258
4.70223e-264
4.72451e-255
-2.54356e-261
4.72451e-255
-2.54356e-261
8.71928e-255
-4.69361e-261
9.53903e-249
4.72451e-255
1.76073e-248
8.71928e-255
4.70223e-264
1.27545e-269
-2.54356e-261
-7.36143e-267
1.27545e-269
1.10196e-275
-7.36143e-267
-6.78461e-273
-7.36143e-267
-6.78461e-273
-1.35822e-266
-1.25165e-272
-2.54356e-261
-7.36143e-267
-4.69361e-261
-1.35822e-266
-4.69361e-261
-1.35822e-266
-6.0995e-261
-1.76489e-266
-1.35822e-266
-1.25165e-272
-1.76489e-266
-1.62625e-272
-1.76489e-266