<VTKFile type="UnstructuredGrid" version="0.1" byte_order="LittleEndian">
<UnstructuredGrid>
<Piece NumberOfPoints="2048" NumberOfCells="512">
<Points>
<DataArray type="Float64" NumberOfComponents="3" format="ascii">
0 0 0
0.125 0 0
0 0.125 0
0.125 0.125 0
0.125 0 0
0.25 0 0
0.125 0.125 0
0.25 0.125 0
0.125 0.125 0
0.25 0.125 0
0.125 0.25 0
0.25 0.25 0
0 0.125 0
0.125 0.125 0
0 0.25 0
0.125 0.25 0
0.25 0 0
0.375 0 0
0.25 0.125 0
0.375 0.125 0
0.375 0 0
0.5 0 0
0.375 0.125 0
0.5 0.125 0
0.375 0.125 0
0.5 0.125 0
0.375 0.25 0
0.5 0.25 0
0.25 0.125 0
0.375 0.125 0
0.25 0.25 0
0.375 0.25 0
0.25 0.25 0
0.375 0.25 0
0.25 0.375 0
0.375 0.375 0
0.375 0.25 0
0.5 0.25 0
0.375 0.375 0
0.5 0.375 0
0.375 0.375 0
0.5 0.375 0
0.375 0.5 0
0.5 0.5 0
0.25 0.375 0
0.375 0.375 0
0.25 0.5 0
0.375 0.5 0
0 0.25 0
0.125 0.25 0
0 0.375 0
0.125 0.375 0
0.125 0.25 0
0.25 0.25 0
0.125 0.375 0
0.25 0.375 0
0.125 0.375 0
0.25 0.375 0
0.125 0.5 0
0.25 0.5 0
0 0.375 0
0.125 0.375 0
0 0.5 0
0.125 0.5 0
0.5 0 0
0.625 0 0
0.5 0.125 0
0.625 0.125 0
0.625 0 0
0.75 0 0
0.625 0.125 0
0.75 0.125 0
0.625 0.125 0
0.75 0.125 0
0.625 0.25 0
0.75 0.25 0
0.5 0.125 0
0.625 0.125 0
0.5 0.25 0
0.625 0.25 0
0.75 0 0
0.875 0 0
0.75 0.125 0
0.875 0.125 0
0.875 0 0
1 0 0
0.875 0.125 0
1 0.125 0
0.875 0.125 0
1 0.125 0
0.875 0.25 0
1 0.25 0
0.75 0.125 0
0.875 0.125 0
0.75 0.25 0
0.875 0.25 0
0.75 0.25 0
0.875 0.25 0
0.75 0.375 0
0.875 0.375 0
0.875 0.25 0
1 0.25 0
0.875 0.375 0
1 0.375 0
0.875 0.375 0
1 0.375 0
0.875 0.5 0
1 0.5 0
0.75 0.375 0
0.875 0.375 0
0.75 0.5 0
0.875 0.5 0
0.5 0.25 0
0.625 0.25 0
0.5 0.375 0
0.625 0.375 0
0.625 0.25 0
0.75 0.25 0
0.625 0.375 0
0.75 0.375 0
0.625 0.375 0
0.75 0.375 0
0.625 0.5 0
0.75 0.5 0
0.5 0.375 0
0.625 0.375 0
0.5 0.5 0
0.625 0.5 0
0.5 0.5 0
0.625 0.5 0
0.5 0.625 0
0.625 0.625 0
0.625 0.5 0
0.75 0.5 0
0.625 0.625 0
0.75 0.625 0
0.625 0.625 0
0.75 0.625 0
0.625 0.75 0
0.75 0.75 0
0.5 0.625 0
0.625 0.625 0
0.5 0.75 0
0.625 0.75 0
0.75 0.5 0
0.875 0.5 0
0.75 0.625 0
0.875 0.625 0
0.875 0.5 0
1 0.5 0
0.875 0.625 0
1 0.625 0
0.875 0.625 0
1 0.625 0
0.875 0.75 0
1 0.75 0
0.75 0.625 0
0.875 0.625 0
0.75 0.75 0
0.875 0.75 0
0.75 0.75 0
0.875 0.75 0
0.75 0.875 0
0.875 0.875 0
0.875 0.75 0
1 0.75 0
0.875 0.875 0
1 0.875 0
0.875 0.875 0
1 0.875 0
0.875 1 0
1 1 0
0.75 0.875 0
0.875 0.875 0
0.75 1 0
0.875 1 0
0.5 0.75 0
0.625 0.75 0
0.5 0.875 0
0.625 0.875 0
0.625 0.75 0
0.75 0.75 0
0.625 0.875 0
0.75 0.875 0
0.625 0.875 0
0.75 0.875 0
0.625 1 0
0.75 1 0
0.5 0.875 0
0.625 0.875 0
0.5 1 0
0.625 1 0
0 0.5 0
0.125 0.5 0
0 0.625 0
0.125 0.625 0
0.125 0.5 0
0.25 0.5 0
0.125 0.625 0
0.25 0.625 0
0.125 0.625 0
0.25 0.625 0
0.125 0.75 0
0.25 0.75 0
0 0.625 0
0.125 0.625 0
0 0.75 0
0.125 0.75 0
0.25 0.5 0
0.375 0.5 0
0.25 0.625 0
0.375 0.625 0
0.375 0.5 0
0.5 0.5 0
0.375 0.625 0
0.5 0.625 0
0.375 0.625 0
0.5 0.625 0
0.375 0.75 0
0.5 0.75 0
0.25 0.625 0
0.375 0.625 0
0.25 0.75 0
0.375 0.75 0
0.25 0.75 0
0.375 0.75 0
0.25 0.875 0
0.375 0.875 0
0.375 0.75 0
0.5 0.75 0
0.375 0.875 0
0.5 0.875 0
0.375 0.875 0
0.5 0.875 0
0.375 1 0
0.5 1 0
0.25 0.875 0
0.375 0.875 0
0.25 1 0
0.375 1 0
0 0.75 0
0.125 0.75 0
0 0.875 0
0.125 0.875 0
0.125 0.75 0
0.25 0.75 0
0.125 0.875 0
0.25 0.875 0
0.125 0.875 0
0.25 0.875 0
0.125 1 0
0.25 1 0
0 0.875 0
0.125 0.875 0
0 1 0
0.125 1 0
1 0 0
1.125 0 0
1 0.125 0
1.125 0.125 0
1.125 0 0
1.25 0 0
1.125 0.125 0
1.25 0.125 0
1.125 0.125 0
1.25 0.125 0
1.125 0.25 0
1.25 0.25 0
1 0.125 0
1.125 0.125 0
1 0.25 0
1.125 0.25 0
1.25 0 0
1.375 0 0
1.25 0.125 0
1.375 0.125 0
1.375 0 0
1.5 0 0
1.375 0.125 0
1.5 0.125 0
1.375 0.125 0
1.5 0.125 0
1.375 0.25 0
1.5 0.25 0
1.25 0.125 0
1.375 0.125 0
1.25 0.25 0
1.375 0.25 0
1.25 0.25 0
1.375 0.25 0
1.25 0.375 0
1.375 0.375 0
1.375 0.25 0
1.5 0.25 0
1.375 0.375 0
1.5 0.375 0
1.375 0.375 0
1.5 0.375 0
1.375 0.5 0
1.5 0.5 0
1.25 0.375 0
1.375 0.375 0
1.25 0.5 0
1.375 0.5 0
1 0.25 0
1.125 0.25 0
1 0.375 0
1.125 0.375 0
1.125 0.25 0
1.25 0.25 0
1.125 0.375 0
1.25 0.375 0
1.125 0.375 0
1.25 0.375 0
1.125 0.5 0
1.25 0.5 0
1 0.375 0
1.125 0.375 0
1 0.5 0
1.125 0.5 0
1.5 0 0
1.625 0 0
1.5 0.125 0
1.625 0.125 0
1.625 0 0
1.75 0 0
1.625 0.125 0
1.75 0.125 0
1.625 0.125 0
1.75 0.125 0
1.625 0.25 0
1.75 0.25 0
1.5 0.125 0
1.625 0.125 0
1.5 0.25 0
1.625 0.25 0
1.75 0 0
1.875 0 0
1.75 0.125 0
1.875 0.125 0
1.875 0 0
2 0 0
1.875 0.125 0
2 0.125 0
1.875 0.125 0
2 0.125 0
1.875 0.25 0
2 0.25 0
1.75 0.125 0
1.875 0.125 0
1.75 0.25 0
1.875 0.25 0
1.75 0.25 0
1.875 0.25 0
1.75 0.375 0
1.875 0.375 0
1.875 0.25 0
2 0.25 0
1.875 0.375 0
2 0.375 0
1.875 0.375 0
2 0.375 0
1.875 0.5 0
2 0.5 0
1.75 0.375 0
1.875 0.375 0
1.75 0.5 0
1.875 0.5 0
1.5 0.25 0
1.625 0.25 0
1.5 0.375 0
1.625 0.375 0
1.625 0.25 0
1.75 0.25 0
1.625 0.375 0
1.75 0.375 0
1.625 0.375 0
1.75 0.375 0
1.625 0.5 0
1.75 0.5 0
1.5 0.375 0
1.625 0.375 0
1.5 0.5 0
1.625 0.5 0
1.5 0.5 0
1.625 0.5 0
1.5 0.625 0
1.625 0.625 0
1.625 0.5 0
1.75 0.5 0
1.625 0.625 0
1.75 0.625 0
1.625 0.625 0
1.75 0.625 0
1.625 0.75 0
1.75 0.75 0
1.5 0.625 0
1.625 0.625 0
1.5 0.75 0
1.625 0.75 0
1.75 0.5 0
1.875 0.5 0
1.75 0.625 0
1.875 0.625 0
1.875 0.5 0
2 0.5 0
1.875 0.625 0
2 0.625 0
1.875 0.625 0
2 0.625 0
1.875 0.75 0
2 0.75 0
1.75 0.625 0
1.875 0.625 0
1.75 0.75 0
1.875 0.75 0
1.75 0.75 0
1.875 0.75 0
1.75 0.875 0
1.875 0.875 0
1.875 0.75 0
2 0.75 0
1.875 0.875 0
2 0.875 0
1.875 0.875 0
2 0.875 0
1.875 1 0
2 1 0
1.75 0.875 0
1.875 0.875 0
1.75 1 0
1.875 1 0
1.5 0.75 0
1.625 0.75 0
1.5 0.875 0
1.625 0.875 0
1.625 0.75 0
1.75 0.75 0
1.625 0.875 0
1.75 0.875 0
1.625 0.875 0
1.75 0.875 0
1.625 1 0
1.75 1 0
1.5 0.875 0
1.625 0.875 0
1.5 1 0
1.625 1 0
1 0.5 0
1.125 0.5 0
1 0.625 0
1.125 0.625 0
1.125 0.5 0
1.25 0.5 0
1.125 0.625 0
1.25 0.625 0
1.125 0.625 0
1.25 0.625 0
1.125 0.75 0
1.25 0.75 0
1 0.625 0
1.125 0.625 0
1 0.75 0
1.125 0.75 0
1.25 0.5 0
1.375 0.5 0
1.25 0.625 0
1.375 0.625 0
1.375 0.5 0
1.5 0.5 0
1.375 0.625 0
1.5 0.625 0
1.375 0.625 0
1.5 0.625 0
1.375 0.75 0
1.5 0.75 0
1.25 0.625 0
1.375 0.625 0
1.25 0.75 0
1.375 0.75 0
1.25 0.75 0
1.375 0.75 0
1.25 0.875 0
1.375 0.875 0
1.375 0.75 0
1.5 0.75 0
1.375 0.875 0
1.5 0.875 0
1.375 0.875 0
1.5 0.875 0
1.375 1 0
1.5 1 0
1.25 0.875 0
1.375 0.875 0
1.25 1 0
1.375 1 0
1 0.75 0
1.125 0.75 0
1 0.875 0
1.125 0.875 0
1.125 0.75 0
1.25 0.75 0
1.125 0.875 0
1.25 0.875 0
1.125 0.875 0
1.25 0.875 0
1.125 1 0
1.25 1 0
1 0.875 0
1.125 0.875 0
1 1 0
1.125 1 0
2 0 0
2.125 0 0
2 0.125 0
2.125 0.125 0
2.125 0 0
2.25 0 0
2.125 0.125 0
2.25 0.125 0
2.125 0.125 0
2.25 0.125 0
2.125 0.25 0
2.25 0.25 0
2 0.125 0
2.125 0.125 0
2 0.25 0
2.125 0.25 0
2.25 0 0
2.375 0 0
2.25 0.125 0
2.375 0.125 0
2.375 0 0
2.5 0 0
2.375 0.125 0
2.5 0.125 0
2.375 0.125 0
2.5 0.125 0
2.375 0.25 0
2.5 0.25 0
2.25 0.125 0
2.375 0.125 0
2.25 0.25 0
2.375 0.25 0
2.25 0.25 0
2.375 0.25 0
2.25 0.375 0
2.375 0.375 0
2.375 0.25 0
2.5 0.25 0
2.375 0.375 0
2.5 0.375 0
2.375 0.375 0
2.5 0.375 0
2.375 0.5 0
2.5 0.5 0
2.25 0.375 0
2.375 0.375 0
2.25 0.5 0
2.375 0.5 0
2 0.25 0
2.125 0.25 0
2 0.375 0
2.125 0.375 0
2.125 0.25 0
2.25 0.25 0
2.125 0.375 0
2.25 0.375 0
2.125 0.375 0
2.25 0.375 0
2.125 0.5 0
2.25 0.5 0
2 0.375 0
2.125 0.375 0
2 0.5 0
2.125 0.5 0
2.5 0 0
2.625 0 0
2.5 0.125 0
2.625 0.125 0
2.625 0 0
2.75 0 0
2.625 0.125 0
2.75 0.125 0
2.625 0.125 0
2.75 0.125 0
2.625 0.25 0
2.75 0.25 0
2.5 0.125 0
2.625 0.125 0
2.5 0.25 0
2.625 0.25 0
2.75 0 0
2.875 0 0
2.75 0.125 0
2.875 0.125 0
2.875 0 0
3 0 0
2.875 0.125 0
3 0.125 0
2.875 0.125 0
3 0.125 0
2.875 0.25 0
3 0.25 0
2.75 0.125 0
2.875 0.125 0
2.75 0.25 0
2.875 0.25 0
2.75 0.25 0
2.875 0.25 0
2.75 0.375 0
2.875 0.375 0
2.875 0.25 0
3 0.25 0
2.875 0.375 0
3 0.375 0
2.875 0.375 0
3 0.375 0
2.875 0.5 0
3 0.5 0
2.75 0.375 0
2.875 0.375 0
2.75 0.5 0
2.875 0.5 0
2.5 0.25 0
2.625 0.25 0
2.5 0.375 0
2.625 0.375 0
2.625 0.25 0
2.75 0.25 0
2.625 0.375 0
2.75 0.375 0
2.625 0.375 0
2.75 0.375 0
2.625 0.5 0
2.75 0.5 0
2.5 0.375 0
2.625 0.375 0
2.5 0.5 0
2.625 0.5 0
2.5 0.5 0
2.625 0.5 0
2.5 0.625 0
2.625 0.625 0
2.625 0.5 0
2.75 0.5 0
2.625 0.625 0
2.75 0.625 0
2.625 0.625 0
2.75 0.625 0
2.625 0.75 0
2.75 0.75 0
2.5 0.625 0
2.625 0.625 0
2.5 0.75 0
2.625 0.75 0
2.75 0.5 0
2.875 0.5 0
2.75 0.625 0
2.875 0.625 0
2.875 0.5 0
3 0.5 0
2.875 0.625 0
3 0.625 0
2.875 0.625 0
3 0.625 0
2.875 0.75 0
3 0.75 0
2.75 0.625 0
2.875 0.625 0
2.75 0.75 0
2.875 0.75 0
2.75 0.75 0
2.875 0.75 0
2.75 0.875 0
2.875 0.875 0
2.875 0.75 0
3 0.75 0
2.875 0.875 0
3 0.875 0
2.875 0.875 0
3 0.875 0
2.875 1 0
3 1 0
2.75 0.875 0
2.875 0.875 0
2.75 1 0
2.875 1 0
2.5 0.75 0
2.625 0.75 0
2.5 0.875 0
2.625 0.875 0
2.625 0.75 0
2.75 0.75 0
2.625 0.875 0
2.75 0.875 0
2.625 0.875 0
2.75 0.875 0
2.625 1 0
2.75 1 0
2.5 0.875 0
2.625 0.875 0
2.5 1 0
2.625 1 0
2 0.5 0
2.125 0.5 0
2 0.625 0
2.125 0.625 0
2.125 0.5 0
2.25 0.5 0
2.125 0.625 0
2.25 0.625 0
2.125 0.625 0
2.25 0.625 0
2.125 0.75 0
2.25 0.75 0
2 0.625 0
2.125 0.625 0
2 0.75 0
2.125 0.75 0
2.25 0.5 0
2.375 0.5 0
2.25 0.625 0
2.375 0.625 0
2.375 0.5 0
2.5 0.5 0
2.375 0.625 0
2.5 0.625 0
2.375 0.625 0
2.5 0.625 0
2.375 0.75 0
2.5 0.75 0
2.25 0.625 0
2.375 0.625 0
2.25 0.75 0
2.375 0.75 0
2.25 0.75 0
2.375 0.75 0
2.25 0.875 0
2.375 0.875 0
2.375 0.75 0
2.5 0.75 0
2.375 0.875 0
2.5 0.875 0
2.375 0.875 0
2.5 0.875 0
2.375 1 0
2.5 1 0
2.25 0.875 0
2.375 0.875 0
2.25 1 0
2.375 1 0
2 0.75 0
2.125 0.75 0
2 0.875 0
2.125 0.875 0
2.125 0.75 0
2.25 0.75 0
2.125 0.875 0
2.25 0.875 0
2.125 0.875 0
2.25 0.875 0
2.125 1 0
2.25 1 0
2 0.875 0
2.125 0.875 0
2 1 0
2.125 1 0
3 0 0
3.125 0 0
3 0.125 0
3.125 0.125 0
3.125 0 0
3.25 0 0
3.125 0.125 0
3.25 0.125 0
3.125 0.125 0
3.25 0.125 0
3.125 0.25 0
3.25 0.25 0
3 0.125 0
3.125 0.125 0
3 0.25 0
3.125 0.25 0
3.25 0 0
3.375 0 0
3.25 0.125 0
3.375 0.125 0
3.375 0 0
3.5 0 0
3.375 0.125 0
3.5 0.125 0
3.375 0.125 0
3.5 0.125 0
3.375 0.25 0
3.5 0.25 0
3.25 0.125 0
3.375 0.125 0
3.25 0.25 0
3.375 0.25 0
3.25 0.25 0
3.375 0.25 0
3.25 0.375 0
3.375 0.375 0
3.375 0.25 0
3.5 0.25 0
3.375 0.375 0
3.5 0.375 0
3.375 0.375 0
3.5 0.375 0
3.375 0.5 0
3.5 0.5 0
3.25 0.375 0
3.375 0.375 0
3.25 0.5 0
[...]
<CellData Scalars="attribute">
<DataArray type="Int32" Name="attribute" format="ascii">
1
1
1
1
1
1
1
1
1
1
1
1
1
1
1
1
1
1
1
1
1
1
1
1
1
1
1
1
1
1
1
1
1
1
1
1
1
1
1
1
1
1
1
1
1
1
1
1
1
1
1
1
1
1
1
1
1
1
1
1
1
1
1
1
1
1
1
1
1
1
1
1
1
1
1
1
1
1
1
1
1
1
1
1
1
1
1
1
1
1
1
1
1
1
1
1
1
1
1
1
1
1
1
1
1
1
1
1
1
1
1
1
1
1
1
1
1
1
1
1
1
1
1
1
1
1
1
1
1
1
1
1
1
1
1
1
1
1
1
1
1
1
1
1
1
1
1
1
1
1
1
1
1
1
1
1
1
1
1
1
1
1
1
1
1
1
1
1
1
1
1
1
1
1
1
1
1
1
1
1
1
1
1
1
1
1
1
1
1
1
1
1
1
1
1
1
1
1
1
1
1
1
1
1
1
1
1
1
1
1
1
1
1
1
1
1
1
1
1
1
1
1
1
1
1
1
1
1
1
1
1
1
1
1
1
1
1
1
1
1
1
1
1
1
1
1
1
1
1
1
1
1
1
1
1
1
2
2
2
2
2
2
2
2
2
2
2
2
2
2
2
2
2
2
2
2
2
2
2
2
2
2
2
2
2
2
2
2
2
2
2
2
2
2
2
2
2
2
2
2
2
2
2
2
2
2
2
2
2
2
2
2
2
2
2
2
2
2
2
2
2
2
2
2
2
2
2
2
2
2
2
2
2
2
2
2
2
2
2
2
2
2
2
2
2
2
2
2
2
2
2
2
2
2
2
2
2
2
2
2
2
2
2
2
2
2
2
2
2
2
2
2
2
2
2
2
2
2
2
2
2
2
2
2
2
2
2
2
2
2
2
2
2
2
2
2
2
2
2
2
2
2
2
2
2
2
2
2
2
2
2
2
2
2
2
2
2
2
2
2
2
2
2
2
2
2
2
2
2
2
2
2
2
2
2
2
2
2
2
2
2
2
2
2
2
2
2
2
2
2
2
2
2
2
2
2
2
2
2
2
2
2
2
2
2
2
2
2
2
2
2
2
2
2
2
2
2
2
2
2
2
2
2
2
2
2
2
2
2
2
2
2
2
2
2
2
2
2
2
2
2
2
2
2
2
2
2
2
2
2
2
2
</DataArray>
</CellData>
<PointData >
<DataArray type="Float64" Name="Pressure" NumberOfComponents="1" format="ascii" >
-0.000126801
-7.82334e-08
-0.000207496
-1.29504e-07
-7.82334e-08
2.05228e-12
-1.29504e-07
3.55392e-12
-1.29504e-07
3.55392e-12
-8.69412e-08
2.41337e-12
-0.000207496
-1.29504e-07
-0.000138331
-8.69412e-08
2.05228e-12
-3.46707e-17
3.55392e-12
-6.18989e-17
-3.46707e-17
5.97117e-22
-6.18989e-17
1.10522e-21
-6.18989e-17
1.10522e-21
-4.3098e-17
7.90365e-22
3.55392e-12
-6.18989e-17
2.41337e-12
-4.3098e-17
2.41337e-12
-4.3098e-17
1.23674e-12
-2.20224e-17
-4.3098e-17
7.90365e-22
-2.20224e-17
4.04289e-22
-2.20224e-17
4.04289e-22
-7.28677e-19
1.28213e-23
1.23674e-12
-2.20224e-17
4.35745e-14
-7.28677e-19
-0.000138331
-8.69412e-08
-6.91664e-05
-4.41482e-08
-8.69412e-08
2.41337e-12
-4.41482e-08
1.23674e-12
-4.41482e-08
1.23674e-12
-9.77712e-10
4.35745e-14
-6.91664e-05
-4.41482e-08
-1.20319e-09
-9.77712e-10
5.97117e-22
-5.34051e-27
1.10522e-21
-1.02442e-26
-5.34051e-27
8.25964e-32
-1.02442e-26
1.59323e-31
-1.02442e-26
1.59323e-31
-7.58836e-27
1.1971e-31
1.10522e-21
-1.02442e-26
7.90365e-22
-7.58836e-27
8.25964e-32
-3.11385e-37
1.59323e-31
-6.62065e-37
-3.11385e-37
7.32211e-42
-6.62065e-37
1.43358e-41
-6.62065e-37
1.43358e-41
-5.35172e-37
1.1101e-41
1.59323e-31
-6.62065e-37
1.1971e-31
-5.35172e-37
1.1971e-31
-5.35172e-37
6.22344e-32
-2.82169e-37
-5.35172e-37
1.1101e-41
-2.82169e-37
5.89515e-42
-2.82169e-37
5.89515e-42
-8.13117e-39
1.50089e-43
6.22344e-32
-2.82169e-37
1.78472e-33
-8.13117e-39
7.90365e-22
-7.58836e-27
4.04289e-22
-3.90545e-27
-7.58836e-27
1.1971e-31
-3.90545e-27
6.22344e-32
-3.90545e-27
6.22344e-32
-1.19238e-28
1.78472e-33
4.04289e-22
-3.90545e-27
1.28213e-23
-1.19238e-28
1.28213e-23
-1.19238e-28
-3.84104e-22
3.7196e-27
-1.19238e-28
1.78472e-33
3.7196e-27
-5.95115e-32
3.7196e-27
-5.95115e-32
7.56117e-27
-1.19394e-31
-3.84104e-22
3.7196e-27
-7.8665e-22
7.56117e-27
1.78472e-33
-8.13117e-39
-5.95115e-32
2.6985e-37
-8.13117e-39
1.50089e-43
2.6985e-37
-5.67263e-42
2.6985e-37
-5.67263e-42
5.33729e-37
-1.1083e-41
-5.95115e-32
2.6985e-37
-1.19394e-31
5.33729e-37
-1.19394e-31
5.33729e-37
-1.61865e-31
6.72147e-37
5.33729e-37
-1.1083e-41
6.72147e-37
-1.45363e-41
6.72147e-37
-1.45363e-41
3.18179e-37
-7.46383e-42
-1.61865e-31
6.72147e-37
-8.44551e-32
3.18179e-37
-7.8665e-22
7.56117e-27
-1.12491e-21
1.04186e-26
7.56117e-27
-1.19394e-31
1.04186e-26
-1.61865e-31
1.04186e-26
-1.61865e-31
5.47009e-27
-8.44551e-32
-1.12491e-21
1.04186e-26
-6.12812e-22
5.47009e-27
-1.20319e-09
-9.77712e-10
6.91645e-05
4.25703e-08
-9.77712e-10
4.35745e-14
4.25703e-08
-1.16657e-12
4.25703e-08
-1.16657e-12
8.64958e-08
-2.39409e-12
6.91645e-05
4.25703e-08
0.000138331
8.64958e-08
4.35745e-14
-7.28677e-19
-1.16657e-12
2.08607e-17
-7.28677e-19
1.28213e-23
2.08607e-17
-3.84104e-22
2.08607e-17
-3.84104e-22
4.28278e-17
-7.8665e-22
-1.16657e-12
2.08607e-17
-2.39409e-12
4.28278e-17
-2.39409e-12
4.28278e-17
-3.61964e-12
6.30501e-17
4.28278e-17
-7.8665e-22
6.30501e-17
-1.12491e-21
6.30501e-17
-1.12491e-21
3.56509e-17
-6.12812e-22
-3.61964e-12
6.30501e-17
-2.11958e-12
3.56509e-17
0.000138331
8.64958e-08
0.000207497
1.30961e-07
8.64958e-08
-2.39409e-12
1.30961e-07
-3.61964e-12
1.30961e-07
-3.61964e-12
7.97773e-08
-2.11958e-12
0.000207497
1.30961e-07
0.000126803
7.97773e-08
7.32211e-42
4.568e-48
1.43358e-41
1.57838e-48
4.568e-48
4.98124e-52
1.57838e-48
9.66628e-52
1.57838e-48
9.66628e-52
-3.06945e-48
7.54396e-52
1.43358e-41
1.57838e-48
1.1101e-41
-3.06945e-48
4.98124e-52
1.9133e-57
9.66628e-52
3.23725e-57
1.9133e-57
2.76643e-62
3.23725e-57
5.27187e-62
3.23725e-57
5.27187e-62
2.23386e-57
4.09214e-62
9.66628e-52
3.23725e-57
7.54396e-52
2.23386e-57
7.54396e-52
2.23386e-57
4.06577e-52
1.1643e-57
2.23386e-57
4.09214e-62
1.1643e-57
2.21882e-62
1.1643e-57
2.21882e-62
1.95667e-59
4.2208e-64
4.06577e-52
1.1643e-57
9.00773e-54
1.95667e-59
1.1101e-41
-3.06945e-48
5.89515e-42
-2.07312e-48
-3.06945e-48
7.54396e-52
-2.07312e-48
4.06577e-52
-2.07312e-48
4.06577e-52
-1.15688e-49
9.00773e-54
5.89515e-42
-2.07312e-48
1.50089e-43
-1.15688e-49
2.76643e-62
1.47125e-67
5.27187e-62
2.63714e-67
1.47125e-67
1.22829e-72
2.63714e-67
2.30704e-72
2.63714e-67
2.30704e-72
1.93738e-67
1.77846e-72
5.27187e-62
2.63714e-67
4.09214e-62
1.93738e-67
1.22829e-72
6.75668e-78
2.30704e-72
1.23367e-77
6.75668e-78
4.23195e-83
1.23367e-77
7.88327e-83
1.23367e-77
7.88327e-83
9.26704e-78
6.05381e-83
2.30704e-72
1.23367e-77
1.77846e-72
9.26704e-78
1.77846e-72
9.26704e-78
9.65635e-73
4.98222e-78
9.26704e-78
6.05381e-83
4.98222e-78
3.28768e-83
4.98222e-78
3.28768e-83
7.16535e-80
4.60566e-85
9.65635e-73
4.98222e-78
1.57317e-74
7.16535e-80
4.09214e-62
1.93738e-67
2.21882e-62
1.03156e-67
1.93738e-67
1.77846e-72
1.03156e-67
9.65635e-73
1.03156e-67
9.65635e-73
1.65742e-69
1.57317e-74
2.21882e-62
1.03156e-67
4.2208e-64
1.65742e-69
4.2208e-64
1.65742e-69
-2.15807e-62
-1.00811e-67
1.65742e-69
1.57317e-74
-1.00811e-67
-9.4315e-73
-1.00811e-67
-9.4315e-73
-1.93801e-67
-1.77784e-72
-2.15807e-62
-1.00811e-67
-4.08956e-62
-1.93801e-67
1.57317e-74
7.16535e-80
-9.4315e-73
-4.88088e-78
7.16535e-80
4.60566e-85
-4.88088e-78
-3.22215e-83
-4.88088e-78
-3.22215e-83
-9.26849e-78
-6.05273e-83
-9.4315e-73
-4.88088e-78
-1.77784e-72
-9.26849e-78
-1.77784e-72
-9.26849e-78
-2.32827e-72
-1.24435e-77
-9.26849e-78
-6.05273e-83
-1.24435e-77
-7.94658e-83
-1.24435e-77
-7.94658e-83
-6.8328e-78
-4.27685e-83
-2.32827e-72
-1.24435e-77
-1.24332e-72
-6.8328e-78
-4.08956e-62
-1.93801e-67
-5.32755e-62
-2.6633e-67
-1.93801e-67
-1.77784e-72
-2.6633e-67
-2.32827e-72
-2.6633e-67
-2.32827e-72
-1.49012e-67
-1.24332e-72
-5.32755e-62
-2.6633e-67
-2.80573e-62
-1.49012e-67
1.50089e-43
-1.15688e-49
-5.67263e-42
1.89218e-48
-1.15688e-49
9.00773e-54
1.89218e-48
-3.93466e-52
1.89218e-48
-3.93466e-52
3.01212e-48
-7.53613e-52
-5.67263e-42
1.89218e-48
-1.1083e-41
3.01212e-48
9.00773e-54
1.95667e-59
-3.93466e-52
-1.13675e-57
1.95667e-59
4.2208e-64
-1.13675e-57
-2.15807e-62
-1.13675e-57
-2.15807e-62
-2.23594e-57
-4.08956e-62
-3.93466e-52
-1.13675e-57
-7.53613e-52
-2.23594e-57
-7.53613e-52
-2.23594e-57
-9.78382e-52
-3.27378e-57
-2.23594e-57
-4.08956e-62
-3.27378e-57
-5.32755e-62
-3.27378e-57
-5.32755e-62
-1.94073e-57
-2.80573e-62
-9.78382e-52
-3.27378e-57
-5.06381e-52
-1.94073e-57
-1.1083e-41
3.01212e-48
-1.45363e-41
-1.58629e-48
3.01212e-48
-7.53613e-52
-1.58629e-48
-9.78382e-52
-1.58629e-48
-9.78382e-52
-4.61276e-48
-5.06381e-52
-1.45363e-41
-1.58629e-48
-7.46383e-42
-4.61276e-48
4.23195e-83
2.16712e-88
7.88327e-83
3.9861e-88
2.16712e-88
1.11974e-93
3.9861e-88
2.07731e-93
3.9861e-88
2.07731e-93
3.02609e-88
1.59332e-93
7.88327e-83
3.9861e-88
6.05381e-83
3.02609e-88
1.11974e-93
5.14609e-99
2.07731e-93
9.49401e-99
5.14609e-99
2.28249e-104
9.49401e-99
4.22606e-104
9.49401e-99
4.22606e-104
7.24764e-99
3.24187e-104
2.07731e-93
9.49401e-99
1.59332e-93
7.24764e-99
1.59332e-93
7.24764e-99
8.65481e-94
3.92836e-99
7.24764e-99
3.24187e-104
3.92836e-99
1.76151e-104
3.92836e-99
1.76151e-104
4.36857e-101
1.85082e-106
8.65481e-94
3.92836e-99
1.04791e-95
4.36857e-101
6.05381e-83
3.02609e-88
3.28768e-83
1.63546e-88
3.02609e-88
1.59332e-93
1.63546e-88
8.65481e-94
1.63546e-88
8.65481e-94
2.07408e-90
1.04791e-95
3.28768e-83
1.63546e-88
4.60566e-85
2.07408e-90
2.28249e-104
9.31607e-110
4.22606e-104
1.72067e-109
9.31607e-110
3.61275e-115
1.72067e-109
6.68224e-115
1.72067e-109
6.68224e-115
1.31765e-109
5.12922e-115
4.22606e-104
1.72067e-109
3.24187e-104
1.31765e-109
3.61275e-115
1.30772e-120
6.68224e-115
2.41612e-120
1.30772e-120
4.47479e-126
2.41612e-120
8.2717e-126
2.41612e-120
8.2717e-126
1.85364e-120
6.35373e-126
6.68224e-115
2.41612e-120
5.12922e-115
1.85364e-120
5.12922e-115
1.85364e-120
2.78786e-115
1.00715e-120
1.85364e-120
6.35373e-126
1.00715e-120
3.45414e-126
1.00715e-120
3.45414e-126
8.56384e-123
2.75273e-128
2.78786e-115
1.00715e-120
2.5488e-117
8.56384e-123
3.24187e-104
1.31765e-109
1.76151e-104
7.15321e-110
1.31765e-109
5.12922e-115
7.15321e-110
2.78786e-115
7.15321e-110
2.78786e-115
6.95909e-112
2.5488e-117
1.76151e-104
7.15321e-110
1.85082e-106
6.95909e-112
1.85082e-106
6.95909e-112
-1.73529e-104
-7.05481e-110
6.95909e-112
2.5488e-117
-7.05481e-110
-2.75177e-115
-7.05481e-110
-2.75177e-115
-1.31766e-109
-5.12908e-115
-1.73529e-104
-7.05481e-110
-3.24172e-104
-1.31766e-109
2.5488e-117
8.56384e-123
-2.75177e-115
-9.95038e-121
8.56384e-123
2.75273e-128
-9.95038e-121
-3.41518e-126
-9.95038e-121
-3.41518e-126
-1.85364e-120
-6.35359e-126
-2.75177e-115
-9.95038e-121
-5.12908e-115
-1.85364e-120
-5.12908e-115
-1.85364e-120
-6.71794e-115
-2.42819e-120
-1.85364e-120
-6.35359e-126
-2.42819e-120
-8.31025e-126
-2.42819e-120
-8.31025e-126
-1.31627e-120
-4.5021e-126
-6.71794e-115
-2.42819e-120
-3.63804e-115
-1.31627e-120
-3.24172e-104
-1.31766e-109
-4.25193e-104
-1.73054e-109
-1.31766e-109
-5.12908e-115
-1.73054e-109
-6.71794e-115
-1.73054e-109
-6.71794e-115
-9.3859e-110
-3.63804e-115
-4.25193e-104
-1.73054e-109
-2.30083e-104
-9.3859e-110
4.60566e-85
2.07408e-90
-3.22215e-83
-1.60613e-88
2.07408e-90
1.04791e-95
-1.60613e-88
-8.50611e-94
-1.60613e-88
-8.50611e-94
-3.02633e-88
-1.59318e-93
-3.22215e-83
-1.60613e-88
-6.05273e-83
-3.02633e-88
1.04791e-95
4.36857e-101
-8.50611e-94
-3.8666e-99
4.36857e-101
1.85082e-106
-3.8666e-99
-1.73529e-104
-3.8666e-99
-1.73529e-104
-7.24791e-99
-3.24172e-104
-8.50611e-94
-3.8666e-99
-1.59318e-93
-7.24791e-99
-1.59318e-93
-7.24791e-99
-2.09188e-93
-9.55646e-99
-7.24791e-99
-3.24172e-104
-9.55646e-99
-4.25193e-104
-9.55646e-99
-4.25193e-104
-5.19033e-99
-2.30083e-104
-2.09188e-93
-9.55646e-99
-1.13007e-93
-5.19033e-99
-6.05273e-83
-3.02633e-88
-7.94658e-83
-4.01618e-88
-3.02633e-88
-1.59318e-93
-4.01618e-88
-2.09188e-93
-4.01618e-88
-2.09188e-93
-2.18847e-88
-1.13007e-93
-7.94658e-83
-4.01618e-88
-4.27685e-83
-2.18847e-88
4.47479e-126
1.43802e-131
8.2717e-126
2.65673e-131
1.43802e-131
4.36172e-137
2.65673e-131
8.0592e-137
2.65673e-131
8.0592e-137
2.04064e-131
6.1944e-137
8.2717e-126
2.65673e-131
6.35373e-126
2.04064e-131
4.36172e-137
1.2455e-142
8.0592e-137
2.30061e-142
1.2455e-142
3.35406e-148
2.30061e-142
6.19516e-148
2.30061e-142
6.19516e-148
1.76849e-142
4.76414e-148
8.0592e-137
2.30061e-142
6.1944e-137
1.76849e-142
6.1944e-137
1.76849e-142
3.36792e-137
9.61478e-143
1.76849e-142
4.76414e-148
9.61478e-143
2.59037e-148
9.61478e-143
2.59037e-148
6.24314e-145
1.57358e-150
3.36792e-137
9.61478e-143
2.34236e-139
6.24314e-145
6.35373e-126
2.04064e-131
3.45414e-126
1.10923e-131
2.04064e-131
6.1944e-137
1.10923e-131
3.36792e-137
1.10923e-131
3.36792e-137
8.24169e-134
2.34236e-139
3.45414e-126
1.10923e-131
2.75273e-128
8.24169e-134
3.35406e-148
8.50618e-154
6.19516e-148
1.57081e-153
8.50618e-154
2.03163e-159
1.57081e-153
3.75138e-159
1.57081e-153
3.75138e-159
1.20816e-153
2.88603e-159
6.19516e-148
1.57081e-153
4.76414e-148
1.20816e-153
2.03163e-159
4.5631e-165
3.75138e-159
8.42434e-165
4.5631e-165
9.62523e-171
8.42434e-165
1.7768e-170
8.42434e-165
1.7768e-170
6.48199e-165
1.36737e-170
3.75138e-159
8.42434e-165
2.88603e-159
6.48199e-165
2.88603e-159
6.48199e-165
1.56916e-159
3.52417e-165
6.48199e-165
1.36737e-170
3.52417e-165
7.43405e-171
3.52417e-165
7.43405e-171
1.74923e-167
3.4516e-173
1.56916e-159
3.52417e-165
8.33124e-162
1.74923e-167
4.76414e-148
1.20816e-153
2.59037e-148
6.56875e-154
1.20816e-153
2.88603e-159
6.56875e-154
1.56916e-159
6.56875e-154
1.56916e-159
3.72848e-156
8.33124e-162
2.59037e-148
6.56875e-154
1.57358e-150
3.72848e-156
1.57358e-150
3.72848e-156
-2.56809e-148
-6.51594e-154
3.72848e-156
8.33124e-162
-6.51594e-154
-1.55736e-159
-6.51594e-154
-1.55736e-159
-1.20813e-153
-2.88595e-159
-2.56809e-148
-6.51594e-154
-4.76402e-148
-1.20813e-153
8.33124e-162
1.74923e-167
-1.55736e-159
-3.49938e-165
1.74923e-167
3.4516e-173
-3.49938e-165
-7.38512e-171
-3.49938e-165
-7.38512e-171
-6.4818e-165
-1.36733e-170
-1.55736e-159
-3.49938e-165
-2.88595e-159
-6.4818e-165
-2.88595e-159
-6.4818e-165
-3.76298e-159
-8.44866e-165
-6.4818e-165
-1.36733e-170
-8.44866e-165
-1.78158e-170
-8.44866e-165
-1.78158e-170
-4.58031e-165
-9.65913e-171
-3.76298e-159
-8.44866e-165
-2.03984e-159
-4.58031e-165
-4.76402e-148
-1.20813e-153
-6.21712e-148
-1.57601e-153
-1.20813e-153
-2.88595e-159
-1.57601e-153
-3.76298e-159
-1.57601e-153
-3.76298e-159
-8.54301e-154
-2.03984e-159
-6.21712e-148
-1.57601e-153
-3.36961e-148
-8.54301e-154
2.75273e-128
8.24169e-134
-3.41518e-126
-1.09757e-131
8.24169e-134
2.34236e-139
-1.09757e-131
-3.33476e-137
-1.09757e-131
-3.33476e-137
-2.04061e-131
-6.19426e-137
-3.41518e-126
-1.09757e-131
-6.35359e-126
-2.04061e-131
2.34236e-139
6.24314e-145
-3.33476e-137
-9.52641e-143
6.24314e-145
1.57358e-150
-9.52641e-143
-2.56809e-148
-9.52641e-143
-2.56809e-148
-1.76846e-142
-4.76402e-148
-3.33476e-137
-9.52641e-143
-6.19426e-137
-1.76846e-142
-6.19426e-137
-1.76846e-142
-8.09196e-137
-2.30935e-142
-1.76846e-142
-4.76402e-148
-2.30935e-142
-6.21712e-148
-2.30935e-142
-6.21712e-148
-1.25169e-142
-3.36961e-148
-8.09196e-137
-2.30935e-142
-4.38492e-137
-1.25169e-142
-6.35359e-126
-2.04061e-131
-8.31025e-126
-2.6683e-131
-2.04061e-131
-6.19426e-137
-2.6683e-131
-8.09196e-137
-2.6683e-131
-8.09196e-137
-1.44621e-131
-4.38492e-137
-8.31025e-126
-2.6683e-131
-4.5021e-126
-1.44621e-131
9.62523e-171
1.90218e-176
1.7768e-170
3.5109e-176
1.90218e-176
3.51112e-182
3.5109e-176
6.47982e-182
3.5109e-176
6.47982e-182
2.70222e-176
4.98793e-182
1.7768e-170
3.5109e-176
1.36737e-170
2.70222e-176
3.51112e-182
6.02557e-188
6.47982e-182
1.11189e-187
6.02557e-188
9.55086e-194
1.11189e-187
1.76222e-193
1.11189e-187
1.76222e-193
8.5598e-188
1.35676e-193
6.47982e-182
1.11189e-187
4.98793e-182
8.5598e-188
4.98793e-182
8.5598e-188
2.71158e-182
4.65311e-188
8.5598e-188
1.35676e-193
4.65311e-188
7.375e-194
4.65311e-188
7.375e-194
1.7683e-190
2.62254e-196
2.71158e-182
4.65311e-188
1.10152e-184
1.7683e-190
1.36737e-170
2.70222e-176
7.43405e-171
1.46906e-176
2.70222e-176
4.98793e-182
1.46906e-176
2.71158e-182
1.46906e-176
2.71158e-182
6.37888e-179
1.10152e-184
7.43405e-171
1.46906e-176
3.4516e-173
6.37888e-179
9.55086e-194
1.38405e-199
1.76222e-193
2.55342e-199
1.38405e-199
1.80318e-205
2.55342e-199
3.32634e-205
2.55342e-199
3.32634e-205
1.96608e-199
2.56141e-205
1.76222e-193
2.55342e-199
1.35676e-193
1.96608e-199
1.80318e-205
2.04711e-211
3.32634e-205
3.77595e-211
2.04711e-211
1.88566e-217
3.77595e-211
3.47784e-217
3.77595e-211
3.47784e-217
2.90781e-211
2.67841e-217
3.32634e-205
3.77595e-211
2.56141e-205
2.90781e-211
2.56141e-205
2.90781e-211
1.39218e-205
1.58037e-211
2.90781e-211
2.67841e-217
1.58037e-211
1.45562e-217
1.58037e-211
1.45562e-217
4.60714e-214
3.97273e-220
1.39218e-205
1.58037e-211
4.33584e-208
4.60714e-214
1.35676e-193
1.96608e-199
7.375e-194
1.06866e-199
1.96608e-199
2.56141e-205
1.06866e-199
1.39218e-205
1.06866e-199
1.39218e-205
3.55604e-202
4.33584e-208
7.375e-194
1.06866e-199
2.62254e-196
3.55604e-202
2.62254e-196
3.55604e-202
-7.33777e-194
-1.06361e-199
3.55604e-202
4.33584e-208
-1.06361e-199
-1.38601e-205
-1.06361e-199
-1.38601e-205
-1.966e-199
-2.5613e-205
-7.33777e-194
-1.06361e-199
-1.35671e-193
-1.966e-199
4.33584e-208
4.60714e-214
-1.38601e-205
-1.57382e-211
4.60714e-214
3.97273e-220
-1.57382e-211
-1.44997e-217
-1.57382e-211
-1.44997e-217
-2.90769e-211
-2.67829e-217
-1.38601e-205
-1.57382e-211
-2.5613e-205
-2.90769e-211
-2.5613e-205
-2.90769e-211
-3.33228e-205
-3.78223e-211
-2.90769e-211
-2.67829e-217
-3.78223e-211
-3.48325e-217
-3.78223e-211
-3.48325e-217
-2.05156e-211
-1.88948e-217
-3.33228e-205
-3.78223e-211
-1.80738e-205
-2.05156e-211
-1.35671e-193
-1.966e-199
-1.76582e-193
-2.5583e-199
-1.966e-199
-2.5613e-205
-2.5583e-199
-3.33228e-205
-2.5583e-199
-3.33228e-205
-1.38751e-199
-1.80738e-205
-1.76582e-193
-2.5583e-199
-9.5764e-194
-1.38751e-199
3.4516e-173
6.37888e-179
-7.38512e-171
-1.46001e-176
6.37888e-179
1.10152e-184
-1.46001e-176
-2.69595e-182
-1.46001e-176
-2.69595e-182
-2.70213e-176
-4.98775e-182
-7.38512e-171
-1.46001e-176
-1.36733e-170
-2.70213e-176
1.10152e-184
1.7683e-190
-2.69595e-182
-4.62801e-188
1.7683e-190
2.62254e-196
-4.62801e-188
-7.33777e-194
-4.62801e-188
-7.33777e-194
-8.55947e-188
-1.35671e-193
-2.69595e-182
-4.62801e-188
-4.98775e-182
-8.55947e-188
-4.98775e-182
-8.55947e-188
-6.49503e-182
-1.11433e-187
-8.55947e-188
-1.35671e-193
-1.11433e-187
-1.76582e-193
-1.11433e-187
-1.76582e-193
-6.04283e-188
-9.5764e-194
-6.49503e-182
-1.11433e-187
-3.5219e-182
-6.04283e-188
-1.36733e-170
-2.70213e-176
-1.78158e-170
-3.51973e-176
-2.70213e-176
-4.98775e-182
-3.51973e-176
-6.49503e-182
-3.51973e-176
-6.49503e-182
-1.90844e-176
-3.5219e-182
-1.78158e-170
-3.51973e-176
-9.65913e-171
-1.90844e-176
1.88566e-217
1.09333e-223
3.47784e-217
2.01633e-223
1.09333e-223
-4.20466e-230
2.01633e-223
-7.75366e-230
2.01633e-223
-7.75366e-230
1.55293e-223
-5.97199e-230
3.47784e-217
2.01633e-223
2.67841e-217
1.55293e-223
-4.20466e-230
-2.45571e-235
-7.75366e-230
-4.52814e-235
-2.45571e-235
-4.42733e-241
-4.52814e-235
-8.16308e-241
-4.52814e-235
-8.16308e-241
-3.48779e-235
-6.28786e-241
-7.75366e-230
-4.52814e-235
-5.97199e-230
-3.48779e-235
-5.97199e-230
-3.48779e-235
-3.24527e-230
-1.89523e-235
-3.48779e-235
-6.28786e-241
-1.89523e-235
-3.41662e-241
-1.89523e-235
-3.41662e-241
-4.24807e-238
-7.17422e-244
-3.24527e-230
-1.89523e-235
-7.766e-233
-4.24807e-238
2.67841e-217
1.55293e-223
1.45562e-217
8.43925e-224
1.55293e-223
-5.97199e-230
8.43925e-224
-3.24527e-230
8.43925e-224
-3.24527e-230
2.15661e-226
-7.766e-233
1.45562e-217
8.43925e-224
3.97273e-220
2.15661e-226
-4.42733e-241
-5.44606e-247
-8.16308e-241
-1.00407e-246
-5.44606e-247
-4.64615e-253
-1.00407e-246
-8.56542e-253
-1.00407e-246
-8.56542e-253
-7.73446e-247
-6.59823e-253
-8.16308e-241
-1.00407e-246
-6.28786e-241
-7.73446e-247
-4.64615e-253
-1.69894e-259
-8.56542e-253
-3.1319e-259
-1.69894e-259
2.72881e-265
-3.1319e-259
5.03013e-265
-3.1319e-259
5.03013e-265
-2.41268e-259
3.87512e-265
-8.56542e-253
-3.1319e-259
-6.59823e-253
-2.41268e-259
-6.59823e-253
-2.41268e-259
-3.58498e-253
-1.31082e-259
-2.41268e-259
3.87512e-265
-1.31082e-259
2.10529e-265
-1.31082e-259
2.10529e-265
-2.26558e-262
3.41142e-268
-3.58498e-253
-1.31082e-259
-6.61014e-256
-2.26558e-262
-6.28786e-241
-7.73446e-247
-3.41662e-241
-4.20248e-247
-7.73446e-247
-6.59823e-253
-4.20248e-247
-3.58498e-253
-4.20248e-247
-3.58498e-253
-8.26824e-250
-6.61014e-256
-3.41662e-241
-4.20248e-247
-7.17422e-244
-8.26824e-250
-7.17422e-244
-8.26824e-250
3.40638e-241
4.19067e-247
-8.26824e-250
-6.61014e-256
4.19067e-247
3.57553e-253
4.19067e-247
3.57553e-253
7.73407e-247
6.59789e-253
3.40638e-241
4.19067e-247
6.28755e-241
7.73407e-247
-6.61014e-256
-2.26558e-262
3.57553e-253
1.30758e-259
-2.26558e-262
3.41142e-268
1.30758e-259
-2.10041e-265
1.30758e-259
-2.10041e-265
2.41255e-259
-3.87491e-265
3.57553e-253
1.30758e-259
6.59789e-253
2.41255e-259
6.59789e-253
2.41255e-259
8.57419e-253
3.13489e-259
2.41255e-259
-3.87491e-265
3.13489e-259
-5.03462e-265
3.13489e-259