<VTKFile type="UnstructuredGrid" version="0.1" byte_order="LittleEndian">
<UnstructuredGrid>
<Piece NumberOfPoints="2048" NumberOfCells="512">
<Points>
<DataArray type="Float64" NumberOfComponents="3" format="ascii">
0 0 0
0.125 0 0
0 0.125 0
0.125 0.125 0
0.125 0 0
0.25 0 0
0.125 0.125 0
0.25 0.125 0
0.125 0.125 0
0.25 0.125 0
0.125 0.25 0
0.25 0.25 0
0 0.125 0
0.125 0.125 0
0 0.25 0
0.125 0.25 0
0.25 0 0
0.375 0 0
0.25 0.125 0
0.375 0.125 0
0.375 0 0
0.5 0 0
0.375 0.125 0
0.5 0.125 0
0.375 0.125 0
0.5 0.125 0
0.375 0.25 0
0.5 0.25 0
0.25 0.125 0
0.375 0.125 0
0.25 0.25 0
0.375 0.25 0
0.25 0.25 0
0.375 0.25 0
0.25 0.375 0
0.375 0.375 0
0.375 0.25 0
0.5 0.25 0
0.375 0.375 0
0.5 0.375 0
0.375 0.375 0
0.5 0.375 0
0.375 0.5 0
0.5 0.5 0
0.25 0.375 0
0.375 0.375 0
0.25 0.5 0
0.375 0.5 0
0 0.25 0
0.125 0.25 0
0 0.375 0
0.125 0.375 0
0.125 0.25 0
0.25 0.25 0
0.125 0.375 0
0.25 0.375 0
0.125 0.375 0
0.25 0.375 0
0.125 0.5 0
0.25 0.5 0
0 0.375 0
0.125 0.375 0
0 0.5 0
0.125 0.5 0
0.5 0 0
0.625 0 0
0.5 0.125 0
0.625 0.125 0
0.625 0 0
0.75 0 0
0.625 0.125 0
0.75 0.125 0
0.625 0.125 0
0.75 0.125 0
0.625 0.25 0
0.75 0.25 0
0.5 0.125 0
0.625 0.125 0
0.5 0.25 0
0.625 0.25 0
0.75 0 0
0.875 0 0
0.75 0.125 0
0.875 0.125 0
0.875 0 0
1 0 0
0.875 0.125 0
1 0.125 0
0.875 0.125 0
1 0.125 0
0.875 0.25 0
1 0.25 0
0.75 0.125 0
0.875 0.125 0
0.75 0.25 0
0.875 0.25 0
0.75 0.25 0
0.875 0.25 0
0.75 0.375 0
0.875 0.375 0
0.875 0.25 0
1 0.25 0
0.875 0.375 0
1 0.375 0
0.875 0.375 0
1 0.375 0
0.875 0.5 0
1 0.5 0
0.75 0.375 0
0.875 0.375 0
0.75 0.5 0
0.875 0.5 0
0.5 0.25 0
0.625 0.25 0
0.5 0.375 0
0.625 0.375 0
0.625 0.25 0
0.75 0.25 0
0.625 0.375 0
0.75 0.375 0
0.625 0.375 0
0.75 0.375 0
0.625 0.5 0
0.75 0.5 0
0.5 0.375 0
0.625 0.375 0
0.5 0.5 0
0.625 0.5 0
0.5 0.5 0
0.625 0.5 0
0.5 0.625 0
0.625 0.625 0
0.625 0.5 0
0.75 0.5 0
0.625 0.625 0
0.75 0.625 0
0.625 0.625 0
0.75 0.625 0
0.625 0.75 0
0.75 0.75 0
0.5 0.625 0
0.625 0.625 0
0.5 0.75 0
0.625 0.75 0
0.75 0.5 0
0.875 0.5 0
0.75 0.625 0
0.875 0.625 0
0.875 0.5 0
1 0.5 0
0.875 0.625 0
1 0.625 0
0.875 0.625 0
1 0.625 0
0.875 0.75 0
1 0.75 0
0.75 0.625 0
0.875 0.625 0
0.75 0.75 0
0.875 0.75 0
0.75 0.75 0
0.875 0.75 0
0.75 0.875 0
0.875 0.875 0
0.875 0.75 0
1 0.75 0
0.875 0.875 0
1 0.875 0
0.875 0.875 0
1 0.875 0
0.875 1 0
1 1 0
0.75 0.875 0
0.875 0.875 0
0.75 1 0
0.875 1 0
0.5 0.75 0
0.625 0.75 0
0.5 0.875 0
0.625 0.875 0
0.625 0.75 0
0.75 0.75 0
0.625 0.875 0
0.75 0.875 0
0.625 0.875 0
0.75 0.875 0
0.625 1 0
0.75 1 0
0.5 0.875 0
0.625 0.875 0
0.5 1 0
0.625 1 0
0 0.5 0
0.125 0.5 0
0 0.625 0
0.125 0.625 0
0.125 0.5 0
0.25 0.5 0
0.125 0.625 0
0.25 0.625 0
0.125 0.625 0
0.25 0.625 0
0.125 0.75 0
0.25 0.75 0
0 0.625 0
0.125 0.625 0
0 0.75 0
0.125 0.75 0
0.25 0.5 0
0.375 0.5 0
0.25 0.625 0
0.375 0.625 0
0.375 0.5 0
0.5 0.5 0
0.375 0.625 0
0.5 0.625 0
0.375 0.625 0
0.5 0.625 0
0.375 0.75 0
0.5 0.75 0
0.25 0.625 0
0.375 0.625 0
0.25 0.75 0
0.375 0.75 0
0.25 0.75 0
0.375 0.75 0
0.25 0.875 0
0.375 0.875 0
0.375 0.75 0
0.5 0.75 0
0.375 0.875 0
0.5 0.875 0
0.375 0.875 0
0.5 0.875 0
0.375 1 0
0.5 1 0
0.25 0.875 0
0.375 0.875 0
0.25 1 0
0.375 1 0
0 0.75 0
0.125 0.75 0
0 0.875 0
0.125 0.875 0
0.125 0.75 0
0.25 0.75 0
0.125 0.875 0
0.25 0.875 0
0.125 0.875 0
0.25 0.875 0
0.125 1 0
0.25 1 0
0 0.875 0
0.125 0.875 0
0 1 0
0.125 1 0
1 0 0
1.125 0 0
1 0.125 0
1.125 0.125 0
1.125 0 0
1.25 0 0
1.125 0.125 0
1.25 0.125 0
1.125 0.125 0
1.25 0.125 0
1.125 0.25 0
1.25 0.25 0
1 0.125 0
1.125 0.125 0
1 0.25 0
1.125 0.25 0
1.25 0 0
1.375 0 0
1.25 0.125 0
1.375 0.125 0
1.375 0 0
1.5 0 0
1.375 0.125 0
1.5 0.125 0
1.375 0.125 0
1.5 0.125 0
1.375 0.25 0
1.5 0.25 0
1.25 0.125 0
1.375 0.125 0
1.25 0.25 0
1.375 0.25 0
1.25 0.25 0
1.375 0.25 0
1.25 0.375 0
1.375 0.375 0
1.375 0.25 0
1.5 0.25 0
1.375 0.375 0
1.5 0.375 0
1.375 0.375 0
1.5 0.375 0
1.375 0.5 0
1.5 0.5 0
1.25 0.375 0
1.375 0.375 0
1.25 0.5 0
1.375 0.5 0
1 0.25 0
1.125 0.25 0
1 0.375 0
1.125 0.375 0
1.125 0.25 0
1.25 0.25 0
1.125 0.375 0
1.25 0.375 0
1.125 0.375 0
1.25 0.375 0
1.125 0.5 0
1.25 0.5 0
1 0.375 0
1.125 0.375 0
1 0.5 0
1.125 0.5 0
1.5 0 0
1.625 0 0
1.5 0.125 0
1.625 0.125 0
1.625 0 0
1.75 0 0
1.625 0.125 0
1.75 0.125 0
1.625 0.125 0
1.75 0.125 0
1.625 0.25 0
1.75 0.25 0
1.5 0.125 0
1.625 0.125 0
1.5 0.25 0
1.625 0.25 0
1.75 0 0
1.875 0 0
1.75 0.125 0
1.875 0.125 0
1.875 0 0
2 0 0
1.875 0.125 0
2 0.125 0
1.875 0.125 0
2 0.125 0
1.875 0.25 0
2 0.25 0
1.75 0.125 0
1.875 0.125 0
1.75 0.25 0
1.875 0.25 0
1.75 0.25 0
1.875 0.25 0
1.75 0.375 0
1.875 0.375 0
1.875 0.25 0
2 0.25 0
1.875 0.375 0
2 0.375 0
1.875 0.375 0
2 0.375 0
1.875 0.5 0
2 0.5 0
1.75 0.375 0
1.875 0.375 0
1.75 0.5 0
1.875 0.5 0
1.5 0.25 0
1.625 0.25 0
1.5 0.375 0
1.625 0.375 0
1.625 0.25 0
1.75 0.25 0
1.625 0.375 0
1.75 0.375 0
1.625 0.375 0
1.75 0.375 0
1.625 0.5 0
1.75 0.5 0
1.5 0.375 0
1.625 0.375 0
1.5 0.5 0
1.625 0.5 0
1.5 0.5 0
1.625 0.5 0
1.5 0.625 0
1.625 0.625 0
1.625 0.5 0
1.75 0.5 0
1.625 0.625 0
1.75 0.625 0
1.625 0.625 0
1.75 0.625 0
1.625 0.75 0
1.75 0.75 0
1.5 0.625 0
1.625 0.625 0
1.5 0.75 0
1.625 0.75 0
1.75 0.5 0
1.875 0.5 0
1.75 0.625 0
1.875 0.625 0
1.875 0.5 0
2 0.5 0
1.875 0.625 0
2 0.625 0
1.875 0.625 0
2 0.625 0
1.875 0.75 0
2 0.75 0
1.75 0.625 0
1.875 0.625 0
1.75 0.75 0
1.875 0.75 0
1.75 0.75 0
1.875 0.75 0
1.75 0.875 0
1.875 0.875 0
1.875 0.75 0
2 0.75 0
1.875 0.875 0
2 0.875 0
1.875 0.875 0
2 0.875 0
1.875 1 0
2 1 0
1.75 0.875 0
1.875 0.875 0
1.75 1 0
1.875 1 0
1.5 0.75 0
1.625 0.75 0
1.5 0.875 0
1.625 0.875 0
1.625 0.75 0
1.75 0.75 0
1.625 0.875 0
1.75 0.875 0
1.625 0.875 0
1.75 0.875 0
1.625 1 0
1.75 1 0
1.5 0.875 0
1.625 0.875 0
1.5 1 0
1.625 1 0
1 0.5 0
1.125 0.5 0
1 0.625 0
1.125 0.625 0
1.125 0.5 0
1.25 0.5 0
1.125 0.625 0
1.25 0.625 0
1.125 0.625 0
1.25 0.625 0
1.125 0.75 0
1.25 0.75 0
1 0.625 0
1.125 0.625 0
1 0.75 0
1.125 0.75 0
1.25 0.5 0
1.375 0.5 0
1.25 0.625 0
1.375 0.625 0
1.375 0.5 0
1.5 0.5 0
1.375 0.625 0
1.5 0.625 0
1.375 0.625 0
1.5 0.625 0
1.375 0.75 0
1.5 0.75 0
1.25 0.625 0
1.375 0.625 0
1.25 0.75 0
1.375 0.75 0
1.25 0.75 0
1.375 0.75 0
1.25 0.875 0
1.375 0.875 0
1.375 0.75 0
1.5 0.75 0
1.375 0.875 0
1.5 0.875 0
1.375 0.875 0
1.5 0.875 0
1.375 1 0
1.5 1 0
1.25 0.875 0
1.375 0.875 0
1.25 1 0
1.375 1 0
1 0.75 0
1.125 0.75 0
1 0.875 0
1.125 0.875 0
1.125 0.75 0
1.25 0.75 0
1.125 0.875 0
1.25 0.875 0
1.125 0.875 0
1.25 0.875 0
1.125 1 0
1.25 1 0
1 0.875 0
1.125 0.875 0
1 1 0
1.125 1 0
2 0 0
2.125 0 0
2 0.125 0
2.125 0.125 0
2.125 0 0
2.25 0 0
2.125 0.125 0
2.25 0.125 0
2.125 0.125 0
2.25 0.125 0
2.125 0.25 0
2.25 0.25 0
2 0.125 0
2.125 0.125 0
2 0.25 0
2.125 0.25 0
2.25 0 0
2.375 0 0
2.25 0.125 0
2.375 0.125 0
2.375 0 0
2.5 0 0
2.375 0.125 0
2.5 0.125 0
2.375 0.125 0
2.5 0.125 0
2.375 0.25 0
2.5 0.25 0
2.25 0.125 0
2.375 0.125 0
2.25 0.25 0
2.375 0.25 0
2.25 0.25 0
2.375 0.25 0
2.25 0.375 0
2.375 0.375 0
2.375 0.25 0
2.5 0.25 0
2.375 0.375 0
2.5 0.375 0
2.375 0.375 0
2.5 0.375 0
2.375 0.5 0
2.5 0.5 0
2.25 0.375 0
2.375 0.375 0
2.25 0.5 0
2.375 0.5 0
2 0.25 0
2.125 0.25 0
2 0.375 0
2.125 0.375 0
2.125 0.25 0
2.25 0.25 0
2.125 0.375 0
2.25 0.375 0
2.125 0.375 0
2.25 0.375 0
2.125 0.5 0
2.25 0.5 0
2 0.375 0
2.125 0.375 0
2 0.5 0
2.125 0.5 0
2.5 0 0
2.625 0 0
2.5 0.125 0
2.625 0.125 0
2.625 0 0
2.75 0 0
2.625 0.125 0
2.75 0.125 0
2.625 0.125 0
2.75 0.125 0
2.625 0.25 0
2.75 0.25 0
2.5 0.125 0
2.625 0.125 0
2.5 0.25 0
2.625 0.25 0
2.75 0 0
2.875 0 0
2.75 0.125 0
2.875 0.125 0
2.875 0 0
3 0 0
2.875 0.125 0
3 0.125 0
2.875 0.125 0
3 0.125 0
2.875 0.25 0
3 0.25 0
2.75 0.125 0
2.875 0.125 0
2.75 0.25 0
2.875 0.25 0
2.75 0.25 0
2.875 0.25 0
2.75 0.375 0
2.875 0.375 0
2.875 0.25 0
3 0.25 0
2.875 0.375 0
3 0.375 0
2.875 0.375 0
3 0.375 0
2.875 0.5 0
3 0.5 0
2.75 0.375 0
2.875 0.375 0
2.75 0.5 0
2.875 0.5 0
2.5 0.25 0
2.625 0.25 0
2.5 0.375 0
2.625 0.375 0
2.625 0.25 0
2.75 0.25 0
2.625 0.375 0
2.75 0.375 0
2.625 0.375 0
2.75 0.375 0
2.625 0.5 0
2.75 0.5 0
2.5 0.375 0
2.625 0.375 0
2.5 0.5 0
2.625 0.5 0
2.5 0.5 0
2.625 0.5 0
2.5 0.625 0
2.625 0.625 0
2.625 0.5 0
2.75 0.5 0
2.625 0.625 0
2.75 0.625 0
2.625 0.625 0
2.75 0.625 0
2.625 0.75 0
2.75 0.75 0
2.5 0.625 0
2.625 0.625 0
2.5 0.75 0
2.625 0.75 0
2.75 0.5 0
2.875 0.5 0
2.75 0.625 0
2.875 0.625 0
2.875 0.5 0
3 0.5 0
2.875 0.625 0
3 0.625 0
2.875 0.625 0
3 0.625 0
2.875 0.75 0
3 0.75 0
2.75 0.625 0
2.875 0.625 0
2.75 0.75 0
2.875 0.75 0
2.75 0.75 0
2.875 0.75 0
2.75 0.875 0
2.875 0.875 0
2.875 0.75 0
3 0.75 0
2.875 0.875 0
3 0.875 0
2.875 0.875 0
3 0.875 0
2.875 1 0
3 1 0
2.75 0.875 0
2.875 0.875 0
2.75 1 0
2.875 1 0
2.5 0.75 0
2.625 0.75 0
2.5 0.875 0
2.625 0.875 0
2.625 0.75 0
2.75 0.75 0
2.625 0.875 0
2.75 0.875 0
2.625 0.875 0
2.75 0.875 0
2.625 1 0
2.75 1 0
2.5 0.875 0
2.625 0.875 0
2.5 1 0
2.625 1 0
2 0.5 0
2.125 0.5 0
2 0.625 0
2.125 0.625 0
2.125 0.5 0
2.25 0.5 0
2.125 0.625 0
2.25 0.625 0
2.125 0.625 0
2.25 0.625 0
2.125 0.75 0
2.25 0.75 0
2 0.625 0
2.125 0.625 0
2 0.75 0
2.125 0.75 0
2.25 0.5 0
2.375 0.5 0
2.25 0.625 0
2.375 0.625 0
2.375 0.5 0
2.5 0.5 0
2.375 0.625 0
2.5 0.625 0
2.375 0.625 0
2.5 0.625 0
2.375 0.75 0
2.5 0.75 0
2.25 0.625 0
2.375 0.625 0
2.25 0.75 0
2.375 0.75 0
2.25 0.75 0
2.375 0.75 0
2.25 0.875 0
2.375 0.875 0
2.375 0.75 0
2.5 0.75 0
2.375 0.875 0
2.5 0.875 0
2.375 0.875 0
2.5 0.875 0
2.375 1 0
2.5 1 0
2.25 0.875 0
2.375 0.875 0
2.25 1 0
2.375 1 0
2 0.75 0
2.125 0.75 0
2 0.875 0
2.125 0.875 0
2.125 0.75 0
2.25 0.75 0
2.125 0.875 0
2.25 0.875 0
2.125 0.875 0
2.25 0.875 0
2.125 1 0
2.25 1 0
2 0.875 0
2.125 0.875 0
2 1 0
2.125 1 0
3 0 0
3.125 0 0
3 0.125 0
3.125 0.125 0
3.125 0 0
3.25 0 0
3.125 0.125 0
3.25 0.125 0
3.125 0.125 0
3.25 0.125 0
3.125 0.25 0
3.25 0.25 0
3 0.125 0
3.125 0.125 0
3 0.25 0
3.125 0.25 0
3.25 0 0
3.375 0 0
3.25 0.125 0
3.375 0.125 0
3.375 0 0
3.5 0 0
3.375 0.125 0
3.5 0.125 0
3.375 0.125 0
3.5 0.125 0
3.375 0.25 0
3.5 0.25 0
3.25 0.125 0
3.375 0.125 0
3.25 0.25 0
3.375 0.25 0
3.25 0.25 0
3.375 0.25 0
3.25 0.375 0
3.375 0.375 0
3.375 0.25 0
3.5 0.25 0
3.375 0.375 0
3.5 0.375 0
3.375 0.375 0
3.5 0.375 0
3.375 0.5 0
3.5 0.5 0
3.25 0.375 0
3.375 0.375 0
3.25 0.5 0
[...]
<CellData Scalars="attribute">
<DataArray type="Int32" Name="attribute" format="ascii">
1
1
1
1
1
1
1
1
1
1
1
1
1
1
1
1
1
1
1
1
1
1
1
1
1
1
1
1
1
1
1
1
1
1
1
1
1
1
1
1
1
1
1
1
1
1
1
1
1
1
1
1
1
1
1
1
1
1
1
1
1
1
1
1
1
1
1
1
1
1
1
1
1
1
1
1
1
1
1
1
1
1
1
1
1
1
1
1
1
1
1
1
1
1
1
1
1
1
1
1
1
1
1
1
1
1
1
1
1
1
1
1
1
1
1
1
1
1
1
1
1
1
1
1
1
1
1
1
1
1
1
1
1
1
1
1
1
1
1
1
1
1
1
1
1
1
1
1
1
1
1
1
1
1
1
1
1
1
1
1
1
1
1
1
1
1
1
1
1
1
1
1
1
1
1
1
1
1
1
1
1
1
1
1
1
1
1
1
1
1
1
1
1
1
1
1
1
1
1
1
1
1
1
1
1
1
1
1
1
1
1
1
1
1
1
1
1
1
1
1
1
1
1
1
1
1
1
1
1
1
1
1
1
1
1
1
1
1
1
1
1
1
1
1
1
1
1
1
1
1
1
1
1
1
1
1
2
2
2
2
2
2
2
2
2
2
2
2
2
2
2
2
2
2
2
2
2
2
2
2
2
2
2
2
2
2
2
2
2
2
2
2
2
2
2
2
2
2
2
2
2
2
2
2
2
2
2
2
2
2
2
2
2
2
2
2
2
2
2
2
2
2
2
2
2
2
2
2
2
2
2
2
2
2
2
2
2
2
2
2
2
2
2
2
2
2
2
2
2
2
2
2
2
2
2
2
2
2
2
2
2
2
2
2
2
2
2
2
2
2
2
2
2
2
2
2
2
2
2
2
2
2
2
2
2
2
2
2
2
2
2
2
2
2
2
2
2
2
2
2
2
2
2
2
2
2
2
2
2
2
2
2
2
2
2
2
2
2
2
2
2
2
2
2
2
2
2
2
2
2
2
2
2
2
2
2
2
2
2
2
2
2
2
2
2
2
2
2
2
2
2
2
2
2
2
2
2
2
2
2
2
2
2
2
2
2
2
2
2
2
2
2
2
2
2
2
2
2
2
2
2
2
2
2
2
2
2
2
2
2
2
2
2
2
2
2
2
2
2
2
2
2
2
2
2
2
2
2
2
2
2
2
</DataArray>
</CellData>
<PointData >
<DataArray type="Float64" Name="Pressure" NumberOfComponents="1" format="ascii" >
-0.000521444
-8.24939e-07
-0.000853299
-1.36559e-06
-8.24939e-07
5.2305e-11
-1.36559e-06
9.05807e-11
-1.36559e-06
9.05807e-11
-9.16785e-07
6.15119e-11
-0.000853299
-1.36559e-06
-0.000568874
-9.16785e-07
5.2305e-11
-2.1008e-15
9.05807e-11
-3.75102e-15
-2.1008e-15
8.56293e-20
-3.75102e-15
1.58518e-19
-3.75102e-15
1.58518e-19
-2.61187e-15
1.1337e-19
9.05807e-11
-3.75102e-15
6.15119e-11
-2.61187e-15
6.15119e-11
-2.61187e-15
3.15228e-11
-1.33464e-15
-2.61187e-15
1.1337e-19
-1.33464e-15
5.79919e-20
-1.33464e-15
5.79919e-20
-4.41905e-17
1.83994e-21
3.15228e-11
-1.33464e-15
1.11176e-12
-4.41905e-17
-0.000568874
-9.16785e-07
-0.000284446
-4.65539e-07
-9.16785e-07
6.15119e-11
-4.65539e-07
3.15228e-11
-4.65539e-07
3.15228e-11
-1.03113e-08
1.11176e-12
-0.000284446
-4.65539e-07
-1.26872e-08
-1.03113e-08
8.56293e-20
-1.81065e-24
1.58518e-19
-3.47409e-24
-1.81065e-24
6.65245e-29
-3.47409e-24
1.2834e-28
-3.47409e-24
1.2834e-28
-2.57384e-24
9.64399e-29
1.58518e-19
-3.47409e-24
1.1337e-19
-2.57384e-24
6.65245e-29
-5.95464e-34
1.2834e-28
-1.26702e-33
-5.95464e-34
3.36868e-38
-1.26702e-33
6.59581e-38
-1.26702e-33
6.59581e-38
-1.02467e-33
5.10775e-38
1.2834e-28
-1.26702e-33
9.64399e-29
-1.02467e-33
9.64399e-29
-1.02467e-33
5.01383e-29
-5.40306e-34
-1.02467e-33
5.10775e-38
-5.40306e-34
2.71253e-38
-5.40306e-34
2.71253e-38
-1.55807e-35
6.90657e-40
5.01383e-29
-5.40306e-34
1.43819e-30
-1.55807e-35
1.1337e-19
-2.57384e-24
5.79919e-20
-1.3247e-24
-2.57384e-24
9.64399e-29
-1.3247e-24
5.01383e-29
-1.3247e-24
5.01383e-29
-4.04656e-26
1.43819e-30
5.79919e-20
-1.3247e-24
1.83994e-21
-4.04656e-26
1.83994e-21
-4.04656e-26
-5.50953e-20
1.26163e-24
-4.04656e-26
1.43819e-30
1.26163e-24
-4.79441e-29
1.26163e-24
-4.79441e-29
2.56461e-24
-9.61849e-29
-5.50953e-20
1.26163e-24
-1.12837e-19
2.56461e-24
1.43819e-30
-1.55807e-35
-4.79441e-29
5.167e-34
-1.55807e-35
6.90657e-40
5.167e-34
-2.61014e-38
5.167e-34
-2.61014e-38
1.02191e-33
-5.09948e-38
-4.79441e-29
5.167e-34
-9.61849e-29
1.02191e-33
-9.61849e-29
1.02191e-33
-1.30388e-28
1.28633e-33
1.02191e-33
-5.09948e-38
1.28633e-33
-6.6881e-38
1.28633e-33
-6.6881e-38
6.08465e-34
-3.43389e-38
-1.30388e-28
1.28633e-33
-6.8022e-29
6.08465e-34
-1.12837e-19
2.56461e-24
-1.61344e-19
3.53324e-24
2.56461e-24
-9.61849e-29
3.53324e-24
-1.30388e-28
3.53324e-24
-1.30388e-28
1.85461e-24
-6.8022e-29
-1.61344e-19
3.53324e-24
-8.78812e-20
1.85461e-24
-1.26872e-08
-1.03113e-08
0.000284425
4.48898e-07
-1.03113e-08
1.11176e-12
4.48898e-07
-2.97325e-11
4.48898e-07
-2.97325e-11
9.12088e-07
-6.102e-11
0.000284425
4.48898e-07
0.000568868
9.12088e-07
1.11176e-12
-4.41905e-17
-2.97325e-11
1.26419e-15
-4.41905e-17
1.83994e-21
1.26419e-15
-5.50953e-20
1.26419e-15
-5.50953e-20
2.59549e-15
-1.12837e-19
-2.97325e-11
1.26419e-15
-6.102e-11
2.59549e-15
-6.102e-11
2.59549e-15
-9.22575e-11
3.82084e-15
2.59549e-15
-1.12837e-19
3.82084e-15
-1.61344e-19
3.82084e-15
-1.61344e-19
2.16023e-15
-8.78812e-20
-9.22575e-11
3.82084e-15
-5.40221e-11
2.16023e-15
0.000568868
9.12088e-07
0.000853318
1.38096e-06
9.12088e-07
-6.102e-11
1.38096e-06
-9.22575e-11
1.38096e-06
-9.22575e-11
8.4122e-07
-5.40221e-11
0.000853318
1.38096e-06
0.000521464
8.4122e-07
3.36868e-38
5.20135e-44
6.59581e-38
1.99881e-44
5.20135e-44
1.34125e-47
1.99881e-44
2.60266e-47
1.99881e-44
2.60266e-47
-3.22141e-44
2.03117e-47
6.59581e-38
1.99881e-44
5.10775e-38
-3.22141e-44
1.34125e-47
1.26332e-52
2.60266e-47
2.13843e-52
1.26332e-52
4.48505e-57
2.13843e-52
8.5465e-57
2.13843e-52
8.5465e-57
1.47626e-52
6.63364e-57
2.60266e-47
2.13843e-52
2.03117e-47
1.47626e-52
2.03117e-47
1.47626e-52
1.09469e-47
7.69526e-53
1.47626e-52
6.63364e-57
7.69526e-53
3.59682e-57
7.69526e-53
3.59682e-57
1.29424e-54
6.84136e-59
1.09469e-47
7.69526e-53
2.42517e-49
1.29424e-54
5.10775e-38
-3.22141e-44
2.71253e-38
-2.20333e-44
-3.22141e-44
2.03117e-47
-2.20333e-44
1.09469e-47
-2.20333e-44
1.09469e-47
-1.26241e-45
2.42517e-49
2.71253e-38
-2.20333e-44
6.90657e-40
-1.26241e-45
4.48505e-57
5.92851e-62
8.5465e-57
1.06278e-61
5.92851e-62
1.23768e-66
1.06278e-61
2.32459e-66
1.06278e-61
2.32459e-66
7.80859e-62
1.79191e-66
8.5465e-57
1.06278e-61
6.63364e-57
7.80859e-62
1.23768e-66
1.72024e-71
2.32459e-66
3.14106e-71
1.72024e-71
2.74507e-76
3.14106e-71
5.11341e-76
3.14106e-71
5.11341e-76
2.3596e-71
3.92665e-76
2.32459e-66
3.14106e-71
1.79191e-66
2.3596e-71
1.79191e-66
2.3596e-71
9.72926e-67
1.26861e-71
2.3596e-71
3.92665e-76
1.26861e-71
2.13245e-76
1.26861e-71
2.13245e-76
1.82459e-73
2.98705e-78
9.72926e-67
1.26861e-71
1.58487e-68
1.82459e-73
6.63364e-57
7.80859e-62
3.59682e-57
4.15786e-62
7.80859e-62
1.79191e-66
4.15786e-62
9.72926e-67
4.15786e-62
9.72926e-67
6.68158e-64
1.58487e-68
3.59682e-57
4.15786e-62
6.84136e-59
6.68158e-64
6.84136e-59
6.68158e-64
-3.49835e-57
-4.06332e-62
6.68158e-64
1.58487e-68
-4.06332e-62
-9.50274e-67
-4.06332e-62
-9.50274e-67
-7.81114e-62
-1.79129e-66
-3.49835e-57
-4.06332e-62
-6.62947e-57
-7.81114e-62
1.58487e-68
1.82459e-73
-9.50274e-67
-1.2428e-71
1.82459e-73
2.98705e-78
-1.2428e-71
-2.08995e-76
-1.2428e-71
-2.08995e-76
-2.35996e-71
-3.92595e-76
-9.50274e-67
-1.2428e-71
-1.79129e-66
-2.35996e-71
-1.79129e-66
-2.35996e-71
-2.34598e-66
-3.16826e-71
-2.35996e-71
-3.92595e-76
-3.16826e-71
-5.15447e-76
-3.16826e-71
-5.15447e-76
-1.73962e-71
-2.7742e-76
-2.34598e-66
-3.16826e-71
-1.25283e-66
-1.73962e-71
-6.62947e-57
-7.81114e-62
-8.63677e-57
-1.07332e-61
-7.81114e-62
-1.79129e-66
-1.07332e-61
-2.34598e-66
-1.07332e-61
-2.34598e-66
-6.00456e-62
-1.25283e-66
-8.63677e-57
-1.07332e-61
-4.54876e-57
-6.00456e-62
6.90657e-40
-1.26241e-45
-2.61014e-38
2.0057e-44
-1.26241e-45
2.42517e-49
2.0057e-44
-1.05939e-47
2.0057e-44
-1.05939e-47
3.15796e-44
-2.02906e-47
-2.61014e-38
2.0057e-44
-5.09948e-38
3.15796e-44
2.42517e-49
1.29424e-54
-1.05939e-47
-7.51299e-53
1.29424e-54
6.84136e-59
-7.51299e-53
-3.49835e-57
-7.51299e-53
-3.49835e-57
-1.47762e-52
-6.62947e-57
-1.05939e-47
-7.51299e-53
-2.02906e-47
-1.47762e-52
-2.02906e-47
-1.47762e-52
-2.6343e-47
-2.16256e-52
-1.47762e-52
-6.62947e-57
-2.16256e-52
-8.63677e-57
-2.16256e-52
-8.63677e-57
-1.28144e-52
-4.54876e-57
-2.6343e-47
-2.16256e-52
-1.36348e-47
-1.28144e-52
-5.09948e-38
3.15796e-44
-6.6881e-38
-2.01072e-44
3.15796e-44
-2.02906e-47
-2.01072e-44
-2.6343e-47
-2.01072e-44
-2.6343e-47
-5.25329e-44
-1.36348e-47
-6.6881e-38
-2.01072e-44
-3.43389e-38
-5.25329e-44
2.74507e-76
3.61838e-81
5.11341e-76
6.65562e-81
3.61838e-81
4.85964e-86
6.65562e-81
9.01541e-86
6.65562e-81
9.01541e-86
5.05279e-81
6.91481e-86
5.11341e-76
6.65562e-81
3.92665e-76
5.05279e-81
4.85964e-86
5.86859e-91
9.01541e-86
1.08271e-90
5.86859e-91
6.91522e-96
1.08271e-90
1.28036e-95
1.08271e-90
1.28036e-95
8.26536e-91
9.82173e-96
9.01541e-86
1.08271e-90
6.91481e-86
8.26536e-91
6.91481e-86
8.26536e-91
3.75607e-86
4.47999e-91
8.26536e-91
9.82173e-96
4.47999e-91
5.33676e-96
4.47999e-91
5.33676e-96
4.98197e-93
5.60702e-98
3.75607e-86
4.47999e-91
4.54749e-88
4.98197e-93
3.92665e-76
5.05279e-81
2.13245e-76
2.73081e-81
5.05279e-81
6.91481e-86
2.73081e-81
3.75607e-86
2.73081e-81
3.75607e-86
3.46324e-83
4.54749e-88
2.13245e-76
2.73081e-81
2.98705e-78
3.46324e-83
6.91522e-96
7.58734e-101
1.28036e-95
1.40139e-100
7.58734e-101
8.00715e-106
1.40139e-100
1.48103e-105
1.40139e-100
1.48103e-105
1.07315e-100
1.13682e-105
1.28036e-95
1.40139e-100
9.82173e-96
1.07315e-100
8.00715e-106
7.99094e-111
1.48103e-105
1.47639e-110
7.99094e-111
7.64286e-116
1.47639e-110
1.41279e-115
1.47639e-110
1.41279e-115
1.13269e-110
1.08521e-115
1.48103e-105
1.47639e-110
1.13682e-105
1.13269e-110
1.13682e-105
1.13269e-110
6.17888e-106
6.15431e-111
1.13269e-110
1.08521e-115
6.15431e-111
5.89961e-116
6.15431e-111
5.89961e-116
5.23289e-113
4.70141e-118
6.17888e-106
6.15431e-111
5.6488e-108
5.23289e-113
9.82173e-96
1.07315e-100
5.33676e-96
5.8259e-101
1.07315e-100
1.13682e-105
5.8259e-101
6.17888e-106
5.8259e-101
6.17888e-106
5.66768e-103
5.6488e-108
5.33676e-96
5.8259e-101
5.60702e-98
5.66768e-103
5.60702e-98
5.66768e-103
-5.25732e-96
-5.74576e-101
5.66768e-103
5.6488e-108
-5.74576e-101
-6.0989e-106
-5.74576e-101
-6.0989e-106
-1.07316e-100
-1.13679e-105
-5.25732e-96
-5.74576e-101
-9.8213e-96
-1.07316e-100
5.6488e-108
5.23289e-113
-6.0989e-106
-6.0803e-111
5.23289e-113
4.70141e-118
-6.0803e-111
-5.83306e-116
-6.0803e-111
-5.83306e-116
-1.13269e-110
-1.08518e-115
-6.0989e-106
-6.0803e-111
-1.13679e-105
-1.13269e-110
-1.13679e-105
-1.13269e-110
-1.48894e-105
-1.48377e-110
-1.13269e-110
-1.08518e-115
-1.48377e-110
-1.41937e-115
-1.48377e-110
-1.41937e-115
-8.04316e-111
-7.6895e-116
-1.48894e-105
-1.48377e-110
-8.06321e-106
-8.04316e-111
-9.8213e-96
-1.07316e-100
-1.28819e-95
-1.40942e-100
-1.07316e-100
-1.13679e-105
-1.40942e-100
-1.48894e-105
-1.40942e-100
-1.48894e-105
-7.64422e-101
-8.06321e-106
-1.28819e-95
-1.40942e-100
-6.97078e-96
-7.64422e-101
2.98705e-78
3.46324e-83
-2.08995e-76
-2.68185e-81
3.46324e-83
4.54749e-88
-2.68185e-81
-3.69154e-86
-2.68185e-81
-3.69154e-86
-5.05318e-81
-6.91421e-86
-2.08995e-76
-2.68185e-81
-3.92595e-76
-5.05318e-81
4.54749e-88
4.98197e-93
-3.69154e-86
-4.40956e-91
4.98197e-93
5.60702e-98
-4.40956e-91
-5.25732e-96
-4.40956e-91
-5.25732e-96
-8.26566e-91
-9.8213e-96
-3.69154e-86
-4.40956e-91
-6.91421e-86
-8.26566e-91
-6.91421e-86
-8.26566e-91
-9.07862e-86
-1.08983e-90
-8.26566e-91
-9.8213e-96
-1.08983e-90
-1.28819e-95
-1.08983e-90
-1.28819e-95
-5.91903e-91
-6.97078e-96
-9.07862e-86
-1.08983e-90
-4.90447e-86
-5.91903e-91
-3.92595e-76
-5.05318e-81
-5.15447e-76
-6.70586e-81
-5.05318e-81
-6.91421e-86
-6.70586e-81
-9.07862e-86
-6.70586e-81
-9.07862e-86
-3.65402e-81
-4.90447e-86
-5.15447e-76
-6.70586e-81
-2.7742e-76
-3.65402e-81
7.64286e-116
6.96607e-121
1.41279e-115
1.28698e-120
6.96607e-121
6.08643e-126
1.28698e-120
1.1246e-125
1.28698e-120
1.1246e-125
9.88531e-121
8.64382e-126
1.41279e-115
1.28698e-120
1.08521e-115
9.88531e-121
6.08643e-126
5.09037e-131
1.1246e-125
9.4026e-131
5.09037e-131
4.0872e-136
9.4026e-131
7.54932e-136
9.4026e-131
7.54932e-136
7.22784e-131
5.80551e-136
1.1246e-125
9.4026e-131
8.64382e-126
7.22784e-131
8.64382e-126
7.22784e-131
4.69967e-126
3.92957e-131
7.22784e-131
5.80551e-136
3.92957e-131
3.15659e-136
3.92957e-131
3.15659e-136
2.5515e-133
1.91747e-138
4.69967e-126
3.92957e-131
3.26847e-128
2.5515e-133
1.08521e-115
9.88531e-121
5.89961e-116
5.37335e-121
9.88531e-121
8.64382e-126
5.37335e-121
4.69967e-126
5.37335e-121
4.69967e-126
3.99234e-123
3.26847e-128
5.89961e-116
5.37335e-121
4.70141e-118
3.99234e-123
4.0872e-136
3.1508e-141
7.54932e-136
5.81849e-141
3.1508e-141
2.33602e-146
5.81849e-141
4.31346e-146
5.81849e-141
4.31346e-146
4.47517e-141
3.31845e-146
7.54932e-136
5.81849e-141
5.80551e-136
4.47517e-141
2.33602e-146
1.66665e-151
4.31346e-146
3.07695e-151
1.66665e-151
1.14558e-156
3.07695e-151
2.11472e-156
3.07695e-151
2.11472e-156
2.36752e-151
1.62743e-156
4.31346e-146
3.07695e-151
3.31845e-146
2.36752e-151
3.31845e-146
2.36752e-151
1.80428e-146
1.28719e-151
2.36752e-151
1.62743e-156
1.28719e-151
8.84793e-157
1.28719e-151
8.84793e-157
6.38876e-154
4.10792e-159
1.80428e-146
1.28719e-151
9.57921e-149
6.38876e-154
5.80551e-136
4.47517e-141
3.15659e-136
2.43315e-141
4.47517e-141
3.31845e-146
2.43315e-141
1.80428e-146
2.43315e-141
1.80428e-146
1.38103e-143
9.57921e-149
3.15659e-136
2.43315e-141
1.91747e-138
1.38103e-143
1.91747e-138
1.38103e-143
-3.12943e-136
-2.41359e-141
1.38103e-143
9.57921e-149
-2.41359e-141
-1.7907e-146
-2.41359e-141
-1.7907e-146
-4.47506e-141
-3.31836e-146
-3.12943e-136
-2.41359e-141
-5.80536e-136
-4.47506e-141
9.57921e-149
6.38876e-154
-1.7907e-146
-1.27813e-151
6.38876e-154
4.10792e-159
-1.27813e-151
-8.78969e-157
-1.27813e-151
-8.78969e-157
-2.36745e-151
-1.62738e-156
-1.7907e-146
-1.27813e-151
-3.31836e-146
-2.36745e-151
-3.31836e-146
-2.36745e-151
-4.32679e-146
-3.08583e-151
-2.36745e-151
-1.62738e-156
-3.08583e-151
-2.12042e-156
-3.08583e-151
-2.12042e-156
-1.67294e-151
-1.14962e-156
-4.32679e-146
-3.08583e-151
-2.34547e-146
-1.67294e-151
-5.80536e-136
-4.47506e-141
-7.57608e-136
-5.83776e-141
-4.47506e-141
-3.31836e-146
-5.83776e-141
-4.32679e-146
-5.83776e-141
-4.32679e-146
-3.16444e-141
-2.34547e-146
-7.57608e-136
-5.83776e-141
-4.10615e-136
-3.16444e-141
4.70141e-118
3.99234e-123
-5.83306e-116
-5.31686e-121
3.99234e-123
3.26847e-128
-5.31686e-121
-4.65341e-126
-5.31686e-121
-4.65341e-126
-9.8852e-121
-8.64363e-126
-5.83306e-116
-5.31686e-121
-1.08518e-115
-9.8852e-121
3.26847e-128
2.5515e-133
-4.65341e-126
-3.89346e-131
2.5515e-133
1.91747e-138
-3.89346e-131
-3.12943e-136
-3.89346e-131
-3.12943e-136
-7.2277e-131
-5.80536e-136
-4.65341e-126
-3.89346e-131
-8.64363e-126
-7.2277e-131
-8.64363e-126
-7.2277e-131
-1.12917e-125
-9.43831e-131
-7.2277e-131
-5.80536e-136
-9.43831e-131
-7.57608e-136
-9.43831e-131
-7.57608e-136
-5.11565e-131
-4.10615e-136
-1.12917e-125
-9.43831e-131
-6.11881e-126
-5.11565e-131
-1.08518e-115
-9.8852e-121
-1.41937e-115
-1.29258e-120
-9.8852e-121
-8.64363e-126
-1.29258e-120
-1.12917e-125
-1.29258e-120
-1.12917e-125
-7.00576e-121
-6.11881e-126
-1.41937e-115
-1.29258e-120
-7.6895e-116
-7.00576e-121
1.14558e-156
7.59142e-162
2.11472e-156
1.40117e-161
7.59142e-162
4.85427e-167
1.40117e-161
8.95861e-167
1.40117e-161
8.95861e-167
1.07843e-161
6.89603e-167
2.11472e-156
1.40117e-161
1.62743e-156
1.07843e-161
4.85427e-167
2.99725e-172
8.95861e-167
5.53079e-172
2.99725e-172
1.78829e-177
5.53079e-172
3.29955e-177
5.53079e-172
3.29955e-177
4.25784e-172
2.54038e-177
8.95861e-167
5.53079e-172
6.89603e-167
4.25784e-172
6.89603e-167
4.25784e-172
3.74887e-167
2.31456e-172
4.25784e-172
2.54038e-177
2.31456e-172
1.38089e-177
2.31456e-172
1.38089e-177
8.79563e-175
4.91026e-180
3.74887e-167
2.31456e-172
1.52284e-169
8.79563e-175
1.62743e-156
1.07843e-161
8.84793e-157
5.86289e-162
1.07843e-161
6.89603e-167
5.86289e-162
3.74887e-167
5.86289e-162
3.74887e-167
2.54567e-164
1.52284e-169
8.84793e-157
5.86289e-162
4.10792e-159
2.54567e-164
1.78829e-177
1.03167e-182
3.29955e-177
1.90331e-182
1.03167e-182
5.75837e-188
1.90331e-182
1.06225e-187
1.90331e-182
1.06225e-187
1.46551e-182
8.17974e-188
3.29955e-177
1.90331e-182
2.54038e-177
1.46551e-182
5.75837e-188
3.11143e-193
1.06225e-187
5.73912e-193
3.11143e-193
1.62837e-198
5.73912e-193
3.00332e-198
5.73912e-193
3.00332e-198
4.41964e-193
2.31296e-198
1.06225e-187
5.73912e-193
8.17974e-188
4.41964e-193
8.17974e-188
4.41964e-193
4.44585e-188
2.40204e-193
4.41964e-193
2.31296e-198
2.40204e-193
1.25702e-198
2.40204e-193
1.25702e-198
7.00225e-196
3.43057e-201
4.44585e-188
2.40204e-193
1.38458e-190
7.00225e-196
2.54038e-177
1.46551e-182
1.38089e-177
7.96575e-183
1.46551e-182
8.17974e-188
7.96575e-183
4.44585e-188
7.96575e-183
4.44585e-188
2.65058e-185
1.38458e-190
1.38089e-177
7.96575e-183
4.91026e-180
2.65058e-185
4.91026e-180
2.65058e-185
-1.37392e-177
-7.9281e-183
2.65058e-185
1.38458e-190
-7.9281e-183
-4.42617e-188
-7.9281e-183
-4.42617e-188
-1.46545e-182
-8.1794e-188
-1.37392e-177
-7.9281e-183
-2.54028e-177
-1.46545e-182
1.38458e-190
7.00225e-196
-4.42617e-188
-2.39208e-193
7.00225e-196
3.43057e-201
-2.39208e-193
-1.25214e-198
-2.39208e-193
-1.25214e-198
-4.41945e-193
-2.31286e-198
-4.42617e-188
-2.39208e-193
-8.1794e-188
-4.41945e-193
-8.1794e-188
-4.41945e-193
-1.06414e-187
-5.74868e-193
-4.41945e-193
-2.31286e-198
-5.74868e-193
-3.00798e-198
-5.74868e-193
-3.00798e-198
-3.11819e-193
-1.63168e-198
-1.06414e-187
-5.74868e-193
-5.77178e-188
-3.11819e-193
-2.54028e-177
-1.46545e-182
-3.3063e-177
-1.90695e-182
-1.46545e-182
-8.1794e-188
-1.90695e-182
-1.06414e-187
-1.90695e-182
-1.06414e-187
-1.03424e-182
-5.77178e-188
-3.3063e-177
-1.90695e-182
-1.79307e-177
-1.03424e-182
4.10792e-159
2.54567e-164
-8.78969e-157
-5.82679e-162
2.54567e-164
1.52284e-169
-5.82679e-162
-3.72727e-167
-5.82679e-162
-3.72727e-167
-1.0784e-161
-6.89578e-167
-8.78969e-157
-5.82679e-162
-1.62738e-156
-1.0784e-161
1.52284e-169
8.79563e-175
-3.72727e-167
-2.30208e-172
8.79563e-175
4.91026e-180
-2.30208e-172
-1.37392e-177
-2.30208e-172
-1.37392e-177
-4.25768e-172
-2.54028e-177
-3.72727e-167
-2.30208e-172
-6.89578e-167
-4.25768e-172
-6.89578e-167
-4.25768e-172
-8.97965e-167
-5.54291e-172
-4.25768e-172
-2.54028e-177
-5.54291e-172
-3.3063e-177
-5.54291e-172
-3.3063e-177
-3.00583e-172
-1.79307e-177
-8.97965e-167
-5.54291e-172
-4.86916e-167
-3.00583e-172
-1.62738e-156
-1.0784e-161
-2.12042e-156
-1.40469e-161
-1.0784e-161
-6.89578e-167
-1.40469e-161
-8.97965e-167
-1.40469e-161
-8.97965e-167
-7.61638e-162
-4.86916e-167
-2.12042e-156
-1.40469e-161
-1.14962e-156
-7.61638e-162
1.62837e-198
8.25843e-204
3.00332e-198
1.52303e-203
8.25843e-204
4.06063e-209
1.52303e-203
7.48805e-209
1.52303e-203
7.48805e-209
1.173e-203
5.76742e-209
3.00332e-198
1.52303e-203
2.31296e-198
1.173e-203
4.06063e-209
1.93656e-214
7.48805e-209
3.57086e-214
1.93656e-214
8.96158e-220
3.57086e-214
1.65233e-219
3.57086e-214
1.65233e-219
2.75045e-214
1.27276e-219
7.48805e-209
3.57086e-214
5.76742e-209
2.75045e-214
5.76742e-209
2.75045e-214
3.1341e-209
1.49457e-214
2.75045e-214
1.27276e-219
1.49457e-214
6.91575e-220
1.49457e-214
6.91575e-220
3.34992e-217
1.45213e-222
3.1341e-209
1.49457e-214
7.50001e-212
3.34992e-217
2.31296e-198
1.173e-203
1.25702e-198
6.37456e-204
1.173e-203
5.76742e-209
6.37456e-204
3.1341e-209
6.37456e-204
3.1341e-209
1.62892e-206
7.50001e-212
1.25702e-198
6.37456e-204
3.43057e-201
1.62892e-206
8.96158e-220
4.02551e-225
1.65233e-219
7.42172e-225
4.02551e-225
1.75588e-230
7.42172e-225
3.23705e-230
7.42172e-225
3.23705e-230
5.71702e-225
2.49361e-230
1.65233e-219
7.42172e-225
1.27276e-219
5.71702e-225
1.75588e-230
7.4395e-236
3.23705e-230
1.37143e-235
7.4395e-236
3.06269e-241
1.37143e-235
5.64558e-241
1.37143e-235
5.64558e-241
1.05649e-235
4.34925e-241
3.23705e-230
1.37143e-235
2.49361e-230
1.05649e-235
2.49361e-230
1.05649e-235
1.35484e-230
5.73998e-236
1.05649e-235
4.34925e-241
5.73998e-236
2.36288e-241
5.73998e-236
2.36288e-241
9.92029e-239
3.82877e-244
1.35484e-230
5.73998e-236
2.49803e-233
9.92029e-239
1.27276e-219
5.71702e-225
6.91575e-220
3.10632e-225
5.71702e-225
2.49361e-230
3.10632e-225
1.35484e-230
3.10632e-225
1.35484e-230
6.11138e-228
2.49803e-233
6.91575e-220
3.10632e-225
1.45213e-222
6.11138e-228
1.45213e-222
6.11138e-228
-6.89503e-220
-3.09759e-225
6.11138e-228
2.49803e-233
-3.09759e-225
-1.35127e-230
-3.09759e-225
-1.35127e-230
-5.71673e-225
-2.49349e-230
-6.89503e-220
-3.09759e-225
-1.27269e-219
-5.71673e-225
2.49803e-233
9.92029e-239
-1.35127e-230
-5.72578e-236
9.92029e-239
3.82877e-244
-5.72578e-236
-2.3574e-241
-5.72578e-236
-2.3574e-241
-1.05644e-235
-4.34902e-241
-1.35127e-230
-5.72578e-236
-2.49349e-230
-1.05644e-235
-2.49349e-230
-1.05644e-235
-3.24037e-230
-1.37274e-235
-1.05644e-235
-4.34902e-241
-1.37274e-235
-5.65061e-241
-1.37274e-235
-5.65061e-241
-7.44877e-236
-3.06625e-241
-3.24037e-230
-1.37274e-235
-1.75822e-230
-7.44877e-236
-1.27269e-219