<VTKFile type="UnstructuredGrid" version="0.1" byte_order="LittleEndian">
<UnstructuredGrid>
<Piece NumberOfPoints="2048" NumberOfCells="512">
<Points>
<DataArray type="Float64" NumberOfComponents="3" format="ascii">
0 0 0
0.125 0 0
0 0.125 0
0.125 0.125 0
0.125 0 0
0.25 0 0
0.125 0.125 0
0.25 0.125 0
0.125 0.125 0
0.25 0.125 0
0.125 0.25 0
0.25 0.25 0
0 0.125 0
0.125 0.125 0
0 0.25 0
0.125 0.25 0
0.25 0 0
0.375 0 0
0.25 0.125 0
0.375 0.125 0
0.375 0 0
0.5 0 0
0.375 0.125 0
0.5 0.125 0
0.375 0.125 0
0.5 0.125 0
0.375 0.25 0
0.5 0.25 0
0.25 0.125 0
0.375 0.125 0
0.25 0.25 0
0.375 0.25 0
0.25 0.25 0
0.375 0.25 0
0.25 0.375 0
0.375 0.375 0
0.375 0.25 0
0.5 0.25 0
0.375 0.375 0
0.5 0.375 0
0.375 0.375 0
0.5 0.375 0
0.375 0.5 0
0.5 0.5 0
0.25 0.375 0
0.375 0.375 0
0.25 0.5 0
0.375 0.5 0
0 0.25 0
0.125 0.25 0
0 0.375 0
0.125 0.375 0
0.125 0.25 0
0.25 0.25 0
0.125 0.375 0
0.25 0.375 0
0.125 0.375 0
0.25 0.375 0
0.125 0.5 0
0.25 0.5 0
0 0.375 0
0.125 0.375 0
0 0.5 0
0.125 0.5 0
0.5 0 0
0.625 0 0
0.5 0.125 0
0.625 0.125 0
0.625 0 0
0.75 0 0
0.625 0.125 0
0.75 0.125 0
0.625 0.125 0
0.75 0.125 0
0.625 0.25 0
0.75 0.25 0
0.5 0.125 0
0.625 0.125 0
0.5 0.25 0
0.625 0.25 0
0.75 0 0
0.875 0 0
0.75 0.125 0
0.875 0.125 0
0.875 0 0
1 0 0
0.875 0.125 0
1 0.125 0
0.875 0.125 0
1 0.125 0
0.875 0.25 0
1 0.25 0
0.75 0.125 0
0.875 0.125 0
0.75 0.25 0
0.875 0.25 0
0.75 0.25 0
0.875 0.25 0
0.75 0.375 0
0.875 0.375 0
0.875 0.25 0
1 0.25 0
0.875 0.375 0
1 0.375 0
0.875 0.375 0
1 0.375 0
0.875 0.5 0
1 0.5 0
0.75 0.375 0
0.875 0.375 0
0.75 0.5 0
0.875 0.5 0
0.5 0.25 0
0.625 0.25 0
0.5 0.375 0
0.625 0.375 0
0.625 0.25 0
0.75 0.25 0
0.625 0.375 0
0.75 0.375 0
0.625 0.375 0
0.75 0.375 0
0.625 0.5 0
0.75 0.5 0
0.5 0.375 0
0.625 0.375 0
0.5 0.5 0
0.625 0.5 0
0.5 0.5 0
0.625 0.5 0
0.5 0.625 0
0.625 0.625 0
0.625 0.5 0
0.75 0.5 0
0.625 0.625 0
0.75 0.625 0
0.625 0.625 0
0.75 0.625 0
0.625 0.75 0
0.75 0.75 0
0.5 0.625 0
0.625 0.625 0
0.5 0.75 0
0.625 0.75 0
0.75 0.5 0
0.875 0.5 0
0.75 0.625 0
0.875 0.625 0
0.875 0.5 0
1 0.5 0
0.875 0.625 0
1 0.625 0
0.875 0.625 0
1 0.625 0
0.875 0.75 0
1 0.75 0
0.75 0.625 0
0.875 0.625 0
0.75 0.75 0
0.875 0.75 0
0.75 0.75 0
0.875 0.75 0
0.75 0.875 0
0.875 0.875 0
0.875 0.75 0
1 0.75 0
0.875 0.875 0
1 0.875 0
0.875 0.875 0
1 0.875 0
0.875 1 0
1 1 0
0.75 0.875 0
0.875 0.875 0
0.75 1 0
0.875 1 0
0.5 0.75 0
0.625 0.75 0
0.5 0.875 0
0.625 0.875 0
0.625 0.75 0
0.75 0.75 0
0.625 0.875 0
0.75 0.875 0
0.625 0.875 0
0.75 0.875 0
0.625 1 0
0.75 1 0
0.5 0.875 0
0.625 0.875 0
0.5 1 0
0.625 1 0
0 0.5 0
0.125 0.5 0
0 0.625 0
0.125 0.625 0
0.125 0.5 0
0.25 0.5 0
0.125 0.625 0
0.25 0.625 0
0.125 0.625 0
0.25 0.625 0
0.125 0.75 0
0.25 0.75 0
0 0.625 0
0.125 0.625 0
0 0.75 0
0.125 0.75 0
0.25 0.5 0
0.375 0.5 0
0.25 0.625 0
0.375 0.625 0
0.375 0.5 0
0.5 0.5 0
0.375 0.625 0
0.5 0.625 0
0.375 0.625 0
0.5 0.625 0
0.375 0.75 0
0.5 0.75 0
0.25 0.625 0
0.375 0.625 0
0.25 0.75 0
0.375 0.75 0
0.25 0.75 0
0.375 0.75 0
0.25 0.875 0
0.375 0.875 0
0.375 0.75 0
0.5 0.75 0
0.375 0.875 0
0.5 0.875 0
0.375 0.875 0
0.5 0.875 0
0.375 1 0
0.5 1 0
0.25 0.875 0
0.375 0.875 0
0.25 1 0
0.375 1 0
0 0.75 0
0.125 0.75 0
0 0.875 0
0.125 0.875 0
0.125 0.75 0
0.25 0.75 0
0.125 0.875 0
0.25 0.875 0
0.125 0.875 0
0.25 0.875 0
0.125 1 0
0.25 1 0
0 0.875 0
0.125 0.875 0
0 1 0
0.125 1 0
1 0 0
1.125 0 0
1 0.125 0
1.125 0.125 0
1.125 0 0
1.25 0 0
1.125 0.125 0
1.25 0.125 0
1.125 0.125 0
1.25 0.125 0
1.125 0.25 0
1.25 0.25 0
1 0.125 0
1.125 0.125 0
1 0.25 0
1.125 0.25 0
1.25 0 0
1.375 0 0
1.25 0.125 0
1.375 0.125 0
1.375 0 0
1.5 0 0
1.375 0.125 0
1.5 0.125 0
1.375 0.125 0
1.5 0.125 0
1.375 0.25 0
1.5 0.25 0
1.25 0.125 0
1.375 0.125 0
1.25 0.25 0
1.375 0.25 0
1.25 0.25 0
1.375 0.25 0
1.25 0.375 0
1.375 0.375 0
1.375 0.25 0
1.5 0.25 0
1.375 0.375 0
1.5 0.375 0
1.375 0.375 0
1.5 0.375 0
1.375 0.5 0
1.5 0.5 0
1.25 0.375 0
1.375 0.375 0
1.25 0.5 0
1.375 0.5 0
1 0.25 0
1.125 0.25 0
1 0.375 0
1.125 0.375 0
1.125 0.25 0
1.25 0.25 0
1.125 0.375 0
1.25 0.375 0
1.125 0.375 0
1.25 0.375 0
1.125 0.5 0
1.25 0.5 0
1 0.375 0
1.125 0.375 0
1 0.5 0
1.125 0.5 0
1.5 0 0
1.625 0 0
1.5 0.125 0
1.625 0.125 0
1.625 0 0
1.75 0 0
1.625 0.125 0
1.75 0.125 0
1.625 0.125 0
1.75 0.125 0
1.625 0.25 0
1.75 0.25 0
1.5 0.125 0
1.625 0.125 0
1.5 0.25 0
1.625 0.25 0
1.75 0 0
1.875 0 0
1.75 0.125 0
1.875 0.125 0
1.875 0 0
2 0 0
1.875 0.125 0
2 0.125 0
1.875 0.125 0
2 0.125 0
1.875 0.25 0
2 0.25 0
1.75 0.125 0
1.875 0.125 0
1.75 0.25 0
1.875 0.25 0
1.75 0.25 0
1.875 0.25 0
1.75 0.375 0
1.875 0.375 0
1.875 0.25 0
2 0.25 0
1.875 0.375 0
2 0.375 0
1.875 0.375 0
2 0.375 0
1.875 0.5 0
2 0.5 0
1.75 0.375 0
1.875 0.375 0
1.75 0.5 0
1.875 0.5 0
1.5 0.25 0
1.625 0.25 0
1.5 0.375 0
1.625 0.375 0
1.625 0.25 0
1.75 0.25 0
1.625 0.375 0
1.75 0.375 0
1.625 0.375 0
1.75 0.375 0
1.625 0.5 0
1.75 0.5 0
1.5 0.375 0
1.625 0.375 0
1.5 0.5 0
1.625 0.5 0
1.5 0.5 0
1.625 0.5 0
1.5 0.625 0
1.625 0.625 0
1.625 0.5 0
1.75 0.5 0
1.625 0.625 0
1.75 0.625 0
1.625 0.625 0
1.75 0.625 0
1.625 0.75 0
1.75 0.75 0
1.5 0.625 0
1.625 0.625 0
1.5 0.75 0
1.625 0.75 0
1.75 0.5 0
1.875 0.5 0
1.75 0.625 0
1.875 0.625 0
1.875 0.5 0
2 0.5 0
1.875 0.625 0
2 0.625 0
1.875 0.625 0
2 0.625 0
1.875 0.75 0
2 0.75 0
1.75 0.625 0
1.875 0.625 0
1.75 0.75 0
1.875 0.75 0
1.75 0.75 0
1.875 0.75 0
1.75 0.875 0
1.875 0.875 0
1.875 0.75 0
2 0.75 0
1.875 0.875 0
2 0.875 0
1.875 0.875 0
2 0.875 0
1.875 1 0
2 1 0
1.75 0.875 0
1.875 0.875 0
1.75 1 0
1.875 1 0
1.5 0.75 0
1.625 0.75 0
1.5 0.875 0
1.625 0.875 0
1.625 0.75 0
1.75 0.75 0
1.625 0.875 0
1.75 0.875 0
1.625 0.875 0
1.75 0.875 0
1.625 1 0
1.75 1 0
1.5 0.875 0
1.625 0.875 0
1.5 1 0
1.625 1 0
1 0.5 0
1.125 0.5 0
1 0.625 0
1.125 0.625 0
1.125 0.5 0
1.25 0.5 0
1.125 0.625 0
1.25 0.625 0
1.125 0.625 0
1.25 0.625 0
1.125 0.75 0
1.25 0.75 0
1 0.625 0
1.125 0.625 0
1 0.75 0
1.125 0.75 0
1.25 0.5 0
1.375 0.5 0
1.25 0.625 0
1.375 0.625 0
1.375 0.5 0
1.5 0.5 0
1.375 0.625 0
1.5 0.625 0
1.375 0.625 0
1.5 0.625 0
1.375 0.75 0
1.5 0.75 0
1.25 0.625 0
1.375 0.625 0
1.25 0.75 0
1.375 0.75 0
1.25 0.75 0
1.375 0.75 0
1.25 0.875 0
1.375 0.875 0
1.375 0.75 0
1.5 0.75 0
1.375 0.875 0
1.5 0.875 0
1.375 0.875 0
1.5 0.875 0
1.375 1 0
1.5 1 0
1.25 0.875 0
1.375 0.875 0
1.25 1 0
1.375 1 0
1 0.75 0
1.125 0.75 0
1 0.875 0
1.125 0.875 0
1.125 0.75 0
1.25 0.75 0
1.125 0.875 0
1.25 0.875 0
1.125 0.875 0
1.25 0.875 0
1.125 1 0
1.25 1 0
1 0.875 0
1.125 0.875 0
1 1 0
1.125 1 0
2 0 0
2.125 0 0
2 0.125 0
2.125 0.125 0
2.125 0 0
2.25 0 0
2.125 0.125 0
2.25 0.125 0
2.125 0.125 0
2.25 0.125 0
2.125 0.25 0
2.25 0.25 0
2 0.125 0
2.125 0.125 0
2 0.25 0
2.125 0.25 0
2.25 0 0
2.375 0 0
2.25 0.125 0
2.375 0.125 0
2.375 0 0
2.5 0 0
2.375 0.125 0
2.5 0.125 0
2.375 0.125 0
2.5 0.125 0
2.375 0.25 0
2.5 0.25 0
2.25 0.125 0
2.375 0.125 0
2.25 0.25 0
2.375 0.25 0
2.25 0.25 0
2.375 0.25 0
2.25 0.375 0
2.375 0.375 0
2.375 0.25 0
2.5 0.25 0
2.375 0.375 0
2.5 0.375 0
2.375 0.375 0
2.5 0.375 0
2.375 0.5 0
2.5 0.5 0
2.25 0.375 0
2.375 0.375 0
2.25 0.5 0
2.375 0.5 0
2 0.25 0
2.125 0.25 0
2 0.375 0
2.125 0.375 0
2.125 0.25 0
2.25 0.25 0
2.125 0.375 0
2.25 0.375 0
2.125 0.375 0
2.25 0.375 0
2.125 0.5 0
2.25 0.5 0
2 0.375 0
2.125 0.375 0
2 0.5 0
2.125 0.5 0
2.5 0 0
2.625 0 0
2.5 0.125 0
2.625 0.125 0
2.625 0 0
2.75 0 0
2.625 0.125 0
2.75 0.125 0
2.625 0.125 0
2.75 0.125 0
2.625 0.25 0
2.75 0.25 0
2.5 0.125 0
2.625 0.125 0
2.5 0.25 0
2.625 0.25 0
2.75 0 0
2.875 0 0
2.75 0.125 0
2.875 0.125 0
2.875 0 0
3 0 0
2.875 0.125 0
3 0.125 0
2.875 0.125 0
3 0.125 0
2.875 0.25 0
3 0.25 0
2.75 0.125 0
2.875 0.125 0
2.75 0.25 0
2.875 0.25 0
2.75 0.25 0
2.875 0.25 0
2.75 0.375 0
2.875 0.375 0
2.875 0.25 0
3 0.25 0
2.875 0.375 0
3 0.375 0
2.875 0.375 0
3 0.375 0
2.875 0.5 0
3 0.5 0
2.75 0.375 0
2.875 0.375 0
2.75 0.5 0
2.875 0.5 0
2.5 0.25 0
2.625 0.25 0
2.5 0.375 0
2.625 0.375 0
2.625 0.25 0
2.75 0.25 0
2.625 0.375 0
2.75 0.375 0
2.625 0.375 0
2.75 0.375 0
2.625 0.5 0
2.75 0.5 0
2.5 0.375 0
2.625 0.375 0
2.5 0.5 0
2.625 0.5 0
2.5 0.5 0
2.625 0.5 0
2.5 0.625 0
2.625 0.625 0
2.625 0.5 0
2.75 0.5 0
2.625 0.625 0
2.75 0.625 0
2.625 0.625 0
2.75 0.625 0
2.625 0.75 0
2.75 0.75 0
2.5 0.625 0
2.625 0.625 0
2.5 0.75 0
2.625 0.75 0
2.75 0.5 0
2.875 0.5 0
2.75 0.625 0
2.875 0.625 0
2.875 0.5 0
3 0.5 0
2.875 0.625 0
3 0.625 0
2.875 0.625 0
3 0.625 0
2.875 0.75 0
3 0.75 0
2.75 0.625 0
2.875 0.625 0
2.75 0.75 0
2.875 0.75 0
2.75 0.75 0
2.875 0.75 0
2.75 0.875 0
2.875 0.875 0
2.875 0.75 0
3 0.75 0
2.875 0.875 0
3 0.875 0
2.875 0.875 0
3 0.875 0
2.875 1 0
3 1 0
2.75 0.875 0
2.875 0.875 0
2.75 1 0
2.875 1 0
2.5 0.75 0
2.625 0.75 0
2.5 0.875 0
2.625 0.875 0
2.625 0.75 0
2.75 0.75 0
2.625 0.875 0
2.75 0.875 0
2.625 0.875 0
2.75 0.875 0
2.625 1 0
2.75 1 0
2.5 0.875 0
2.625 0.875 0
2.5 1 0
2.625 1 0
2 0.5 0
2.125 0.5 0
2 0.625 0
2.125 0.625 0
2.125 0.5 0
2.25 0.5 0
2.125 0.625 0
2.25 0.625 0
2.125 0.625 0
2.25 0.625 0
2.125 0.75 0
2.25 0.75 0
2 0.625 0
2.125 0.625 0
2 0.75 0
2.125 0.75 0
2.25 0.5 0
2.375 0.5 0
2.25 0.625 0
2.375 0.625 0
2.375 0.5 0
2.5 0.5 0
2.375 0.625 0
2.5 0.625 0
2.375 0.625 0
2.5 0.625 0
2.375 0.75 0
2.5 0.75 0
2.25 0.625 0
2.375 0.625 0
2.25 0.75 0
2.375 0.75 0
2.25 0.75 0
2.375 0.75 0
2.25 0.875 0
2.375 0.875 0
2.375 0.75 0
2.5 0.75 0
2.375 0.875 0
2.5 0.875 0
2.375 0.875 0
2.5 0.875 0
2.375 1 0
2.5 1 0
2.25 0.875 0
2.375 0.875 0
2.25 1 0
2.375 1 0
2 0.75 0
2.125 0.75 0
2 0.875 0
2.125 0.875 0
2.125 0.75 0
2.25 0.75 0
2.125 0.875 0
2.25 0.875 0
2.125 0.875 0
2.25 0.875 0
2.125 1 0
2.25 1 0
2 0.875 0
2.125 0.875 0
2 1 0
2.125 1 0
3 0 0
3.125 0 0
3 0.125 0
3.125 0.125 0
3.125 0 0
3.25 0 0
3.125 0.125 0
3.25 0.125 0
3.125 0.125 0
3.25 0.125 0
3.125 0.25 0
3.25 0.25 0
3 0.125 0
3.125 0.125 0
3 0.25 0
3.125 0.25 0
3.25 0 0
3.375 0 0
3.25 0.125 0
3.375 0.125 0
3.375 0 0
3.5 0 0
3.375 0.125 0
3.5 0.125 0
3.375 0.125 0
3.5 0.125 0
3.375 0.25 0
3.5 0.25 0
3.25 0.125 0
3.375 0.125 0
3.25 0.25 0
3.375 0.25 0
3.25 0.25 0
3.375 0.25 0
3.25 0.375 0
3.375 0.375 0
3.375 0.25 0
3.5 0.25 0
3.375 0.375 0
3.5 0.375 0
3.375 0.375 0
3.5 0.375 0
3.375 0.5 0
3.5 0.5 0
3.25 0.375 0
3.375 0.375 0
3.25 0.5 0
[...]
<CellData Scalars="attribute">
<DataArray type="Int32" Name="attribute" format="ascii">
1
1
1
1
1
1
1
1
1
1
1
1
1
1
1
1
1
1
1
1
1
1
1
1
1
1
1
1
1
1
1
1
1
1
1
1
1
1
1
1
1
1
1
1
1
1
1
1
1
1
1
1
1
1
1
1
1
1
1
1
1
1
1
1
1
1
1
1
1
1
1
1
1
1
1
1
1
1
1
1
1
1
1
1
1
1
1
1
1
1
1
1
1
1
1
1
1
1
1
1
1
1
1
1
1
1
1
1
1
1
1
1
1
1
1
1
1
1
1
1
1
1
1
1
1
1
1
1
1
1
1
1
1
1
1
1
1
1
1
1
1
1
1
1
1
1
1
1
1
1
1
1
1
1
1
1
1
1
1
1
1
1
1
1
1
1
1
1
1
1
1
1
1
1
1
1
1
1
1
1
1
1
1
1
1
1
1
1
1
1
1
1
1
1
1
1
1
1
1
1
1
1
1
1
1
1
1
1
1
1
1
1
1
1
1
1
1
1
1
1
1
1
1
1
1
1
1
1
1
1
1
1
1
1
1
1
1
1
1
1
1
1
1
1
1
1
1
1
1
1
1
1
1
1
1
1
2
2
2
2
2
2
2
2
2
2
2
2
2
2
2
2
2
2
2
2
2
2
2
2
2
2
2
2
2
2
2
2
2
2
2
2
2
2
2
2
2
2
2
2
2
2
2
2
2
2
2
2
2
2
2
2
2
2
2
2
2
2
2
2
2
2
2
2
2
2
2
2
2
2
2
2
2
2
2
2
2
2
2
2
2
2
2
2
2
2
2
2
2
2
2
2
2
2
2
2
2
2
2
2
2
2
2
2
2
2
2
2
2
2
2
2
2
2
2
2
2
2
2
2
2
2
2
2
2
2
2
2
2
2
2
2
2
2
2
2
2
2
2
2
2
2
2
2
2
2
2
2
2
2
2
2
2
2
2
2
2
2
2
2
2
2
2
2
2
2
2
2
2
2
2
2
2
2
2
2
2
2
2
2
2
2
2
2
2
2
2
2
2
2
2
2
2
2
2
2
2
2
2
2
2
2
2
2
2
2
2
2
2
2
2
2
2
2
2
2
2
2
2
2
2
2
2
2
2
2
2
2
2
2
2
2
2
2
2
2
2
2
2
2
2
2
2
2
2
2
2
2
2
2
2
2
</DataArray>
</CellData>
<PointData >
<DataArray type="Float64" Name="Pressure" NumberOfComponents="1" format="ascii" >
-0.000408376
-5.61214e-07
-0.00066827
-9.29021e-07
-5.61214e-07
3.12565e-11
-9.29021e-07
5.41289e-11
-9.29021e-07
5.41289e-11
-6.23695e-07
3.67579e-11
-0.00066827
-9.29021e-07
-0.000445519
-6.23695e-07
3.12565e-11
-1.10651e-15
5.41289e-11
-1.97567e-15
-1.10651e-15
3.9806e-20
-1.97567e-15
7.36871e-20
-1.97567e-15
7.36871e-20
-1.37565e-15
5.26989e-20
5.41289e-11
-1.97567e-15
3.67579e-11
-1.37565e-15
3.67579e-11
-1.37565e-15
1.88372e-11
-7.02946e-16
-1.37565e-15
5.26989e-20
-7.02946e-16
2.6957e-20
-7.02946e-16
2.6957e-20
-2.32717e-17
8.55202e-22
1.88372e-11
-7.02946e-16
6.64221e-13
-2.32717e-17
-0.000445519
-6.23695e-07
-0.000222765
-3.16709e-07
-6.23695e-07
3.67579e-11
-3.16709e-07
1.88372e-11
-3.16709e-07
1.88372e-11
-7.01466e-09
6.64221e-13
-0.000222765
-3.16709e-07
-8.63121e-09
-7.01466e-09
3.9806e-20
-7.43452e-25
7.36871e-20
-1.42639e-24
-7.43452e-25
2.41187e-29
-1.42639e-24
4.65288e-29
-1.42639e-24
4.65288e-29
-1.05673e-24
3.4963e-29
7.36871e-20
-1.42639e-24
5.26989e-20
-1.05673e-24
2.41187e-29
-1.90783e-34
4.65288e-29
-4.05885e-34
-1.90783e-34
9.51985e-39
-4.05885e-34
1.86395e-38
-4.05885e-34
1.86395e-38
-3.28217e-34
1.44342e-38
4.65288e-29
-4.05885e-34
3.4963e-29
-3.28217e-34
3.4963e-29
-3.28217e-34
1.81768e-29
-1.73065e-34
-3.28217e-34
1.44342e-38
-1.73065e-34
7.66539e-39
-1.73065e-34
7.66539e-39
-4.98993e-36
1.95171e-40
1.81768e-29
-1.73065e-34
5.21367e-31
-4.98993e-36
5.26989e-20
-1.05673e-24
2.6957e-20
-5.4387e-25
-1.05673e-24
3.4963e-29
-5.4387e-25
1.81768e-29
-5.4387e-25
1.81768e-29
-1.66119e-26
5.21367e-31
2.6957e-20
-5.4387e-25
8.55202e-22
-1.66119e-26
8.55202e-22
-1.66119e-26
-2.56106e-20
5.17979e-25
-1.66119e-26
5.21367e-31
5.17979e-25
-1.73814e-29
5.17979e-25
-1.73814e-29
1.05294e-24
-3.48705e-29
-2.56106e-20
5.17979e-25
-5.24512e-20
1.05294e-24
5.21367e-31
-4.98993e-36
-1.73814e-29
1.65505e-34
-4.98993e-36
1.95171e-40
1.65505e-34
-7.37603e-39
1.65505e-34
-7.37603e-39
3.27331e-34
-1.44108e-38
-1.73814e-29
1.65505e-34
-3.48705e-29
3.27331e-34
-3.48705e-29
3.27331e-34
-4.72714e-29
4.12069e-34
3.27331e-34
-1.44108e-38
4.12069e-34
-1.89003e-38
4.12069e-34
-1.89003e-38
1.94948e-34
-9.70413e-39
-4.72714e-29
4.12069e-34
-2.46616e-29
1.94948e-34
-5.24512e-20
1.05294e-24
-7.50007e-20
1.45067e-24
1.05294e-24
-3.48705e-29
1.45067e-24
-4.72714e-29
1.45067e-24
-4.72714e-29
7.61498e-25
-2.46616e-29
-7.50007e-20
1.45067e-24
-4.08528e-20
7.61498e-25
-8.63121e-09
-7.01466e-09
0.000222751
3.05388e-07
-7.01466e-09
6.64221e-13
3.05388e-07
-1.77675e-11
3.05388e-07
-1.77675e-11
6.20499e-07
-3.64641e-11
0.000222751
3.05388e-07
0.000445515
6.20499e-07
6.64221e-13
-2.32717e-17
-1.77675e-11
6.65846e-16
-2.32717e-17
8.55202e-22
6.65846e-16
-2.56106e-20
6.65846e-16
-2.56106e-20
1.36703e-15
-5.24512e-20
-1.77675e-11
6.65846e-16
-3.64641e-11
1.36703e-15
-3.64641e-11
1.36703e-15
-5.51307e-11
2.01243e-15
1.36703e-15
-5.24512e-20
2.01243e-15
-7.50007e-20
2.01243e-15
-7.50007e-20
1.13782e-15
-4.08528e-20
-5.51307e-11
2.01243e-15
-3.22825e-11
1.13782e-15
0.000445515
6.20499e-07
0.000668283
9.39476e-07
6.20499e-07
-3.64641e-11
9.39476e-07
-5.51307e-11
9.39476e-07
-5.51307e-11
5.7229e-07
-3.22825e-11
0.000668283
9.39476e-07
0.00040839
5.7229e-07
9.51985e-39
1.29025e-44
1.86395e-38
4.85994e-45
1.29025e-44
2.94949e-48
4.85994e-45
5.72345e-48
4.85994e-45
5.72345e-48
-8.12456e-45
4.46673e-48
1.86395e-38
4.85994e-45
1.44342e-38
-8.12456e-45
2.94949e-48
2.44721e-53
5.72345e-48
4.14203e-53
2.44721e-53
7.65825e-58
4.14203e-53
1.45934e-57
4.14203e-53
1.45934e-57
2.85919e-53
1.13272e-57
5.72345e-48
4.14203e-53
4.46673e-48
2.85919e-53
4.46673e-48
2.85919e-53
2.40733e-48
1.49037e-53
2.85919e-53
1.13272e-57
1.49037e-53
6.14174e-58
1.49037e-53
6.14174e-58
2.50622e-55
1.16822e-59
2.40733e-48
1.49037e-53
5.33322e-50
2.50622e-55
1.44342e-38
-8.12456e-45
7.66539e-39
-5.54232e-45
-8.12456e-45
4.46673e-48
-5.54232e-45
2.40733e-48
-5.54232e-45
2.40733e-48
-3.15831e-46
5.33322e-50
7.66539e-39
-5.54232e-45
1.95171e-40
-3.15831e-46
7.65825e-58
8.9099e-63
1.45934e-57
1.59721e-62
8.9099e-63
1.63686e-67
1.59721e-62
3.07435e-67
1.59721e-62
3.07435e-67
1.17349e-62
2.36989e-67
1.45934e-57
1.59721e-62
1.13272e-57
1.17349e-62
1.63686e-67
2e-72
3.07435e-67
3.65185e-72
2e-72
2.80412e-77
3.65185e-72
5.22342e-77
3.65185e-72
5.22342e-77
2.74328e-72
4.01115e-77
3.07435e-67
3.65185e-72
2.36989e-67
2.74328e-72
2.36989e-67
2.74328e-72
1.28674e-67
1.47489e-72
2.74328e-72
4.01115e-77
1.47489e-72
2.17834e-77
1.47489e-72
2.17834e-77
2.12125e-74
3.05139e-79
1.28674e-67
1.47489e-72
2.09612e-69
2.12125e-74
1.13272e-57
1.17349e-62
6.14174e-58
6.24848e-63
1.17349e-62
2.36989e-67
6.24848e-63
1.28674e-67
6.24848e-63
1.28674e-67
1.00408e-64
2.09612e-69
6.14174e-58
6.24848e-63
1.16822e-59
1.00408e-64
1.16822e-59
1.00408e-64
-5.97359e-58
-6.1064e-63
1.00408e-64
2.09612e-69
-6.1064e-63
-1.25678e-67
-6.1064e-63
-1.25678e-67
-1.17387e-62
-2.36906e-67
-5.97359e-58
-6.1064e-63
-1.13201e-57
-1.17387e-62
2.09612e-69
2.12125e-74
-1.25678e-67
-1.44488e-72
2.12125e-74
3.05139e-79
-1.44488e-72
-2.13493e-77
-1.44488e-72
-2.13493e-77
-2.74371e-72
-4.01044e-77
-1.25678e-67
-1.44488e-72
-2.36906e-67
-2.74371e-72
-2.36906e-67
-2.74371e-72
-3.10263e-67
-3.68347e-72
-2.74371e-72
-4.01044e-77
-3.68347e-72
-5.26536e-77
-3.68347e-72
-5.26536e-77
-2.02254e-72
-2.83387e-77
-3.10263e-67
-3.68347e-72
-1.6569e-67
-2.02254e-72
-1.13201e-57
-1.17387e-62
-1.47475e-57
-1.61305e-62
-1.17387e-62
-2.36906e-67
-1.61305e-62
-3.10263e-67
-1.61305e-62
-3.10263e-67
-9.02418e-63
-1.6569e-67
-1.47475e-57
-1.61305e-62
-7.76703e-58
-9.02418e-63
1.95171e-40
-3.15831e-46
-7.37603e-39
5.04797e-45
-3.15831e-46
5.33322e-50
5.04797e-45
-2.3297e-48
5.04797e-45
-2.3297e-48
7.96627e-45
-4.46209e-48
-7.37603e-39
5.04797e-45
-1.44108e-38
7.96627e-45
5.33322e-50
2.50622e-55
-2.3297e-48
-1.45508e-53
2.50622e-55
1.16822e-59
-1.45508e-53
-5.97359e-58
-1.45508e-53
-5.97359e-58
-2.86184e-53
-1.13201e-57
-2.3297e-48
-1.45508e-53
-4.46209e-48
-2.86184e-53
-4.46209e-48
-2.86184e-53
-5.79304e-48
-4.18877e-53
-2.86184e-53
-1.13201e-57
-4.18877e-53
-1.47475e-57
-4.18877e-53
-1.47475e-57
-2.4823e-53
-7.76703e-58
-5.79304e-48
-4.18877e-53
-2.99838e-48
-2.4823e-53
-1.44108e-38
7.96627e-45
-1.89003e-38
-4.88807e-45
7.96627e-45
-4.46209e-48
-4.88807e-45
-5.79304e-48
-4.88807e-45
-5.79304e-48
-1.30309e-44
-2.99838e-48
-1.89003e-38
-4.88807e-45
-9.70413e-39
-1.30309e-44
2.80412e-77
3.24473e-82
5.22342e-77
5.96829e-82
3.24473e-82
3.82279e-87
5.96829e-82
7.09191e-87
5.96829e-82
7.09191e-87
4.53097e-82
5.4395e-87
5.22342e-77
5.96829e-82
4.01115e-77
4.53097e-82
3.82279e-87
4.04626e-92
7.09191e-87
7.465e-92
4.04626e-92
4.17563e-97
7.465e-92
7.73121e-97
7.465e-92
7.73121e-97
5.69876e-92
5.93069e-97
7.09191e-87
7.465e-92
5.4395e-87
5.69876e-92
5.4395e-87
5.69876e-92
2.95469e-87
3.08884e-92
5.69876e-92
5.93069e-97
3.08884e-92
3.22251e-97
3.08884e-92
3.22251e-97
3.43495e-94
3.38574e-99
2.95469e-87
3.08884e-92
3.57731e-89
3.43495e-94
4.01115e-77
4.53097e-82
2.17834e-77
2.44879e-82
4.53097e-82
5.4395e-87
2.44879e-82
2.95469e-87
2.44879e-82
2.95469e-87
3.10556e-84
3.57731e-89
2.17834e-77
2.44879e-82
3.05139e-79
3.10556e-84
4.17563e-97
4.00888e-102
7.73121e-97
7.40442e-102
4.00888e-102
3.69874e-107
7.40442e-102
6.84129e-107
7.40442e-102
6.84129e-107
5.67013e-102
5.2513e-107
7.73121e-97
7.40442e-102
5.93069e-97
5.67013e-102
3.69874e-107
3.22419e-112
6.84129e-107
5.95696e-112
3.22419e-112
2.69108e-117
5.95696e-112
4.9745e-117
5.95696e-112
4.9745e-117
4.57017e-112
3.82105e-117
6.84129e-107
5.95696e-112
5.2513e-107
4.57017e-112
5.2513e-107
4.57017e-112
2.85421e-107
2.48314e-112
4.57017e-112
3.82105e-117
2.48314e-112
2.07728e-117
2.48314e-112
2.07728e-117
2.11138e-114
1.6554e-119
2.85421e-107
2.48314e-112
2.60937e-109
2.11138e-114
5.93069e-97
5.67013e-102
3.22251e-97
3.07819e-102
5.67013e-102
5.2513e-107
3.07819e-102
2.85421e-107
3.07819e-102
2.85421e-107
2.9946e-104
2.60937e-109
3.22251e-97
3.07819e-102
3.38574e-99
2.9946e-104
3.38574e-99
2.9946e-104
-3.17454e-97
-3.03585e-102
2.9946e-104
2.60937e-109
-3.03585e-102
-2.81726e-107
-3.03585e-102
-2.81726e-107
-5.67021e-102
-5.25116e-107
-3.17454e-97
-3.03585e-102
-5.93042e-97
-5.67021e-102
2.60937e-109
2.11138e-114
-2.81726e-107
-2.45328e-112
2.11138e-114
1.6554e-119
-2.45328e-112
-2.05384e-117
-2.45328e-112
-2.05384e-117
-4.57017e-112
-3.82097e-117
-2.81726e-107
-2.45328e-112
-5.25116e-107
-4.57017e-112
-5.25116e-107
-4.57017e-112
-6.87784e-107
-5.98672e-112
-4.57017e-112
-3.82097e-117
-5.98672e-112
-4.99768e-117
-5.98672e-112
-4.99768e-117
-3.24527e-112
-2.70751e-117
-6.87784e-107
-5.98672e-112
-3.72463e-107
-3.24527e-112
-5.93042e-97
-5.67021e-102
-7.77853e-97
-7.44687e-102
-5.67021e-102
-5.25116e-107
-7.44687e-102
-6.87784e-107
-7.44687e-102
-6.87784e-107
-4.03893e-102
-3.72463e-107
-7.77853e-97
-7.44687e-102
-4.20918e-97
-4.03893e-102
3.05139e-79
3.10556e-84
-2.13493e-77
-2.40488e-82
3.10556e-84
3.57731e-89
-2.40488e-82
-2.90393e-87
-2.40488e-82
-2.90393e-87
-4.53132e-82
-5.43903e-87
-2.13493e-77
-2.40488e-82
-4.01044e-77
-4.53132e-82
3.57731e-89
3.43495e-94
-2.90393e-87
-3.04028e-92
3.43495e-94
3.38574e-99
-3.04028e-92
-3.17454e-97
-3.04028e-92
-3.17454e-97
-5.69896e-92
-5.93042e-97
-2.90393e-87
-3.04028e-92
-5.43903e-87
-5.69896e-92
-5.43903e-87
-5.69896e-92
-7.14163e-87
-7.5141e-92
-5.69896e-92
-5.93042e-97
-7.5141e-92
-7.77853e-97
-7.5141e-92
-7.77853e-97
-4.08104e-92
-4.20918e-97
-7.14163e-87
-7.5141e-92
-3.85806e-87
-4.08104e-92
-4.01044e-77
-4.53132e-82
-5.26536e-77
-6.01334e-82
-4.53132e-82
-5.43903e-87
-6.01334e-82
-7.14163e-87
-6.01334e-82
-7.14163e-87
-3.27668e-82
-3.85806e-87
-5.26536e-77
-6.01334e-82
-2.83387e-77
-3.27668e-82
2.69108e-117
2.13842e-122
4.9745e-117
3.95073e-122
2.13842e-122
1.62735e-127
3.95073e-122
3.00688e-127
3.95073e-122
3.00688e-127
3.03456e-122
2.31112e-127
4.9745e-117
3.95073e-122
3.82105e-117
3.03456e-122
1.62735e-127
1.18425e-132
3.00688e-127
2.18747e-132
1.18425e-132
8.2651e-138
2.18747e-132
1.52662e-137
2.18747e-132
1.52662e-137
1.68152e-132
1.17398e-137
3.00688e-127
2.18747e-132
2.31112e-127
1.68152e-132
2.31112e-127
1.68152e-132
1.25657e-127
9.14194e-133
1.68152e-132
1.17398e-137
9.14194e-133
6.38322e-138
9.14194e-133
6.38322e-138
5.93596e-135
3.87752e-140
1.25657e-127
9.14194e-133
8.73907e-130
5.93596e-135
3.82105e-117
3.03456e-122
2.07728e-117
1.64949e-122
3.03456e-122
2.31112e-127
1.64949e-122
1.25657e-127
1.64949e-122
1.25657e-127
1.22556e-124
8.73907e-130
2.07728e-117
1.64949e-122
1.6554e-119
1.22556e-124
8.2651e-138
5.53238e-143
1.52662e-137
1.02165e-142
5.53238e-143
3.55767e-148
1.02165e-142
6.56922e-148
1.02165e-142
6.56922e-148
7.85781e-143
5.05387e-148
1.52662e-137
1.02165e-142
1.17398e-137
7.85781e-143
3.55767e-148
2.19909e-153
6.56922e-148
4.05994e-153
2.19909e-153
1.30808e-158
4.05994e-153
2.41469e-158
4.05994e-153
2.41469e-158
3.12386e-153
1.85828e-158
6.56922e-148
4.05994e-153
5.05387e-148
3.12386e-153
5.05387e-148
3.12386e-153
2.74784e-148
1.6984e-153
3.12386e-153
1.85828e-158
1.6984e-153
1.0103e-158
1.6984e-153
1.0103e-158
8.42982e-156
4.69065e-161
2.74784e-148
1.6984e-153
1.45888e-150
8.42982e-156
1.17398e-137
7.85781e-143
6.38322e-138
4.27229e-143
7.85781e-143
5.05387e-148
4.27229e-143
2.74784e-148
4.27229e-143
2.74784e-148
2.42493e-145
1.45888e-150
6.38322e-138
4.27229e-143
3.87752e-140
2.42493e-145
3.87752e-140
2.42493e-145
-6.32832e-138
-4.23795e-143
2.42493e-145
1.45888e-150
-4.23795e-143
-2.72717e-148
-4.23795e-143
-2.72717e-148
-7.85761e-143
-5.05372e-148
-6.32832e-138
-4.23795e-143
-1.17396e-137
-7.85761e-143
1.45888e-150
8.42982e-156
-2.72717e-148
-1.68646e-153
8.42982e-156
4.69065e-161
-1.68646e-153
-1.00365e-158
-1.68646e-153
-1.00365e-158
-3.12377e-153
-1.85822e-158
-2.72717e-148
-1.68646e-153
-5.05372e-148
-3.12377e-153
-5.05372e-148
-3.12377e-153
-6.58952e-148
-4.07165e-153
-3.12377e-153
-1.85822e-158
-4.07165e-153
-2.42119e-158
-4.07165e-153
-2.42119e-158
-2.20738e-153
-1.31269e-158
-6.58952e-148
-4.07165e-153
-3.57205e-148
-2.20738e-153
-1.17396e-137
-7.85761e-143
-1.53203e-137
-1.02503e-142
-7.85761e-143
-5.05372e-148
-1.02503e-142
-6.58952e-148
-1.02503e-142
-6.58952e-148
-5.55633e-143
-3.57205e-148
-1.53203e-137
-1.02503e-142
-8.30342e-138
-5.55633e-143
1.6554e-119
1.22556e-124
-2.05384e-117
-1.63215e-122
1.22556e-124
8.73907e-130
-1.63215e-122
-1.24419e-127
-1.63215e-122
-1.24419e-127
-3.03453e-122
-2.31107e-127
-2.05384e-117
-1.63215e-122
-3.82097e-117
-3.03453e-122
8.73907e-130
5.93596e-135
-1.24419e-127
-9.05792e-133
5.93596e-135
3.87752e-140
-9.05792e-133
-6.32832e-138
-9.05792e-133
-6.32832e-138
-1.68149e-132
-1.17396e-137
-1.24419e-127
-9.05792e-133
-2.31107e-127
-1.68149e-132
-2.31107e-127
-1.68149e-132
-3.0191e-127
-2.19577e-132
-1.68149e-132
-1.17396e-137
-2.19577e-132
-1.53203e-137
-2.19577e-132
-1.53203e-137
-1.19013e-132
-8.30342e-138
-3.0191e-127
-2.19577e-132
-1.636e-127
-1.19013e-132
-3.82097e-117
-3.03453e-122
-4.99768e-117
-3.96794e-122
-3.03453e-122
-2.31107e-127
-3.96794e-122
-3.0191e-127
-3.96794e-122
-3.0191e-127
-2.15061e-122
-1.636e-127
-4.99768e-117
-3.96794e-122
-2.70751e-117
-2.15061e-122
1.30808e-158
7.49249e-164
2.41469e-158
1.38291e-163
7.49249e-164
4.13609e-169
1.38291e-163
7.6332e-169
1.38291e-163
7.6332e-169
1.06438e-163
5.87577e-169
2.41469e-158
1.38291e-163
1.85828e-158
1.06438e-163
4.13609e-169
2.20193e-174
7.6332e-169
4.0632e-174
2.20193e-174
1.13128e-179
4.0632e-174
2.08731e-179
4.0632e-174
2.08731e-179
3.12803e-174
1.60705e-179
7.6332e-169
4.0632e-174
5.87577e-169
3.12803e-174
5.87577e-169
3.12803e-174
3.19423e-169
1.7004e-174
3.12803e-174
1.60705e-179
1.7004e-174
8.73554e-180
1.7004e-174
8.73554e-180
6.46176e-177
3.10627e-182
3.19423e-169
1.7004e-174
1.29755e-171
6.46176e-177
1.85828e-158
1.06438e-163
1.0103e-158
5.78648e-164
1.06438e-163
5.87577e-169
5.78648e-164
3.19423e-169
5.78648e-164
3.19423e-169
2.51251e-166
1.29755e-171
1.0103e-158
5.78648e-164
4.69065e-161
2.51251e-166
1.13128e-179
5.61226e-185
2.08731e-179
1.0354e-184
5.61226e-185
2.69005e-190
1.0354e-184
4.96236e-190
1.0354e-184
4.96236e-190
7.97238e-185
3.82121e-190
2.08731e-179
1.0354e-184
1.60705e-179
7.97238e-185
2.69005e-190
1.24641e-195
4.96236e-190
2.29903e-195
1.24641e-195
5.5853e-201
2.29903e-195
1.03013e-200
2.29903e-195
1.03013e-200
1.77046e-195
7.93344e-201
4.96236e-190
2.29903e-195
3.82121e-190
1.77046e-195
3.82121e-190
1.77046e-195
2.0769e-190
9.62233e-196
1.77046e-195
7.93344e-201
9.62233e-196
4.31155e-201
9.62233e-196
4.31155e-201
2.80505e-198
1.17669e-203
2.0769e-190
9.62233e-196
6.46819e-193
2.80505e-198
1.60705e-179
7.97238e-185
8.73554e-180
4.33336e-185
7.97238e-185
3.82121e-190
4.33336e-185
2.0769e-190
4.33336e-185
2.0769e-190
1.44192e-187
6.46819e-193
8.73554e-180
4.33336e-185
3.10627e-182
1.44192e-187
3.10627e-182
1.44192e-187
-8.69143e-180
-4.31288e-185
1.44192e-187
6.46819e-193
-4.31288e-185
-2.06771e-190
-4.31288e-185
-2.06771e-190
-7.97205e-185
-3.82104e-190
-8.69143e-180
-4.31288e-185
-1.60699e-179
-7.97205e-185
6.46819e-193
2.80505e-198
-2.06771e-190
-9.58244e-196
2.80505e-198
1.17669e-203
-9.58244e-196
-4.29481e-201
-9.58244e-196
-4.29481e-201
-1.77039e-195
-7.93308e-201
-2.06771e-190
-9.58244e-196
-3.82104e-190
-1.77039e-195
-3.82104e-190
-1.77039e-195
-4.9712e-190
-2.30286e-195
-1.77039e-195
-7.93308e-201
-2.30286e-195
-1.03173e-200
-2.30286e-195
-1.03173e-200
-1.24912e-195
-5.59663e-201
-4.9712e-190
-2.30286e-195
-2.69632e-190
-1.24912e-195
-1.60699e-179
-7.97205e-185
-2.09158e-179
-1.03738e-184
-7.97205e-185
-3.82104e-190
-1.03738e-184
-4.9712e-190
-1.03738e-184
-4.9712e-190
-5.62626e-185
-2.69632e-190
-2.09158e-179
-1.03738e-184
-1.1343e-179
-5.62626e-185
4.69065e-161
2.51251e-166
-1.00365e-158
-5.75085e-164
2.51251e-166
1.29755e-171
-5.75085e-164
-3.17583e-169
-5.75085e-164
-3.17583e-169
-1.06434e-163
-5.87556e-169
-1.00365e-158
-5.75085e-164
-1.85822e-158
-1.06434e-163
1.29755e-171
6.46176e-177
-3.17583e-169
-1.69123e-174
6.46176e-177
3.10627e-182
-1.69123e-174
-8.69143e-180
-1.69123e-174
-8.69143e-180
-3.12791e-174
-1.60699e-179
-3.17583e-169
-1.69123e-174
-5.87556e-169
-3.12791e-174
-5.87556e-169
-3.12791e-174
-7.65113e-169
-4.07211e-174
-3.12791e-174
-1.60699e-179
-4.07211e-174
-2.09158e-179
-4.07211e-174
-2.09158e-179
-2.20824e-174
-1.1343e-179
-7.65113e-169
-4.07211e-174
-4.14878e-169
-2.20824e-174
-1.85822e-158
-1.06434e-163
-2.42119e-158
-1.38639e-163
-1.06434e-163
-5.87556e-169
-1.38639e-163
-7.65113e-169
-1.38639e-163
-7.65113e-169
-7.51712e-164
-4.14878e-169
-2.42119e-158
-1.38639e-163
-1.31269e-158
-7.51712e-164
5.5853e-201
2.42166e-206
1.03013e-200
4.46604e-206
2.42166e-206
1.01633e-211
4.46604e-206
1.87418e-211
4.46604e-206
1.87418e-211
3.43965e-206
1.44352e-211
1.03013e-200
4.46604e-206
7.93344e-201
3.43965e-206
1.01633e-211
4.13028e-217
1.87418e-211
7.61591e-217
4.13028e-217
1.62588e-222
7.61591e-217
2.99779e-222
7.61591e-217
2.99779e-222
5.86615e-217
2.30914e-222
1.87418e-211
7.61591e-217
1.44352e-211
5.86615e-217
1.44352e-211
5.86615e-217
7.84433e-212
3.18761e-217
5.86615e-217
2.30914e-222
3.18761e-217
1.25471e-222
3.18761e-217
1.25471e-222
7.14473e-220
2.63459e-225
7.84433e-212
3.18761e-217
1.87719e-214
7.14473e-220
7.93344e-201
3.43965e-206
4.31155e-201
1.86924e-206
3.43965e-206
1.44352e-211
1.86924e-206
7.84433e-212
1.86924e-206
7.84433e-212
4.77659e-209
1.87719e-214
4.31155e-201
1.86924e-206
1.17669e-203
4.77659e-209
1.62588e-222
6.20155e-228
2.99779e-222
1.14336e-227
6.20155e-228
2.29262e-233
1.14336e-227
4.22656e-233
1.14336e-227
4.22656e-233
8.80741e-228
3.25587e-233
2.99779e-222
1.14336e-227
2.30914e-222
8.80741e-228
2.29262e-233
8.21657e-239
4.22656e-233
1.51468e-238
8.21657e-239
2.85541e-244
1.51468e-238
5.2635e-244
1.51468e-238
5.2635e-244
1.16685e-238
4.0549e-244
4.22656e-233
1.51468e-238
3.25587e-233
1.16685e-238
3.25587e-233
1.16685e-238
1.76899e-233
6.33953e-239
1.16685e-238
4.0549e-244
6.33953e-239
2.20297e-244
6.33953e-239
2.20297e-244
1.09565e-241
3.56966e-247
1.76899e-233
6.33953e-239
3.26166e-236
1.09565e-241
2.30914e-222
8.80741e-228
1.25471e-222
4.78547e-228
8.80741e-228
3.25587e-233
4.78547e-228
1.76899e-233
4.78547e-228
1.76899e-233
9.41501e-231
3.26166e-236
1.25471e-222
4.78547e-228
2.63459e-225
9.41501e-231
2.63459e-225
9.41501e-231
-1.25095e-222
-4.77202e-228
9.41501e-231
3.26166e-236
-4.77202e-228
-1.76433e-233
-4.77202e-228
-1.76433e-233
-8.80696e-228
-3.2557e-233
-1.25095e-222
-4.77202e-228
-2.30903e-222
-8.80696e-228
3.26166e-236
1.09565e-241
-1.76433e-233
-6.32385e-239
1.09565e-241
3.56966e-247
-6.32385e-239
-2.19786e-244
-6.32385e-239
-2.19786e-244
-1.16679e-238
-4.05469e-244
-1.76433e-233
-6.32385e-239
-3.2557e-233
-1.16679e-238
-3.2557e-233
-1.16679e-238
-4.23089e-233
-1.51613e-238
-1.16679e-238
-4.05469e-244
-1.51613e-238
-5.26819e-244
-1.51613e-238
-5.26819e-244
-8.22681e-239
-2.85873e-244
-4.23089e-233
-1.51613e-238
-2.29568e-233
-8.22681e-239