<VTKFile type="UnstructuredGrid" version="0.1" byte_order="LittleEndian">
<UnstructuredGrid>
<Piece NumberOfPoints="2048" NumberOfCells="512">
<Points>
<DataArray type="Float64" NumberOfComponents="3" format="ascii">
0 0 0
0.125 0 0
0 0.125 0
0.125 0.125 0
0.125 0 0
0.25 0 0
0.125 0.125 0
0.25 0.125 0
0.125 0.125 0
0.25 0.125 0
0.125 0.25 0
0.25 0.25 0
0 0.125 0
0.125 0.125 0
0 0.25 0
0.125 0.25 0
0.25 0 0
0.375 0 0
0.25 0.125 0
0.375 0.125 0
0.375 0 0
0.5 0 0
0.375 0.125 0
0.5 0.125 0
0.375 0.125 0
0.5 0.125 0
0.375 0.25 0
0.5 0.25 0
0.25 0.125 0
0.375 0.125 0
0.25 0.25 0
0.375 0.25 0
0.25 0.25 0
0.375 0.25 0
0.25 0.375 0
0.375 0.375 0
0.375 0.25 0
0.5 0.25 0
0.375 0.375 0
0.5 0.375 0
0.375 0.375 0
0.5 0.375 0
0.375 0.5 0
0.5 0.5 0
0.25 0.375 0
0.375 0.375 0
0.25 0.5 0
0.375 0.5 0
0 0.25 0
0.125 0.25 0
0 0.375 0
0.125 0.375 0
0.125 0.25 0
0.25 0.25 0
0.125 0.375 0
0.25 0.375 0
0.125 0.375 0
0.25 0.375 0
0.125 0.5 0
0.25 0.5 0
0 0.375 0
0.125 0.375 0
0 0.5 0
0.125 0.5 0
0.5 0 0
0.625 0 0
0.5 0.125 0
0.625 0.125 0
0.625 0 0
0.75 0 0
0.625 0.125 0
0.75 0.125 0
0.625 0.125 0
0.75 0.125 0
0.625 0.25 0
0.75 0.25 0
0.5 0.125 0
0.625 0.125 0
0.5 0.25 0
0.625 0.25 0
0.75 0 0
0.875 0 0
0.75 0.125 0
0.875 0.125 0
0.875 0 0
1 0 0
0.875 0.125 0
1 0.125 0
0.875 0.125 0
1 0.125 0
0.875 0.25 0
1 0.25 0
0.75 0.125 0
0.875 0.125 0
0.75 0.25 0
0.875 0.25 0
0.75 0.25 0
0.875 0.25 0
0.75 0.375 0
0.875 0.375 0
0.875 0.25 0
1 0.25 0
0.875 0.375 0
1 0.375 0
0.875 0.375 0
1 0.375 0
0.875 0.5 0
1 0.5 0
0.75 0.375 0
0.875 0.375 0
0.75 0.5 0
0.875 0.5 0
0.5 0.25 0
0.625 0.25 0
0.5 0.375 0
0.625 0.375 0
0.625 0.25 0
0.75 0.25 0
0.625 0.375 0
0.75 0.375 0
0.625 0.375 0
0.75 0.375 0
0.625 0.5 0
0.75 0.5 0
0.5 0.375 0
0.625 0.375 0
0.5 0.5 0
0.625 0.5 0
0.5 0.5 0
0.625 0.5 0
0.5 0.625 0
0.625 0.625 0
0.625 0.5 0
0.75 0.5 0
0.625 0.625 0
0.75 0.625 0
0.625 0.625 0
0.75 0.625 0
0.625 0.75 0
0.75 0.75 0
0.5 0.625 0
0.625 0.625 0
0.5 0.75 0
0.625 0.75 0
0.75 0.5 0
0.875 0.5 0
0.75 0.625 0
0.875 0.625 0
0.875 0.5 0
1 0.5 0
0.875 0.625 0
1 0.625 0
0.875 0.625 0
1 0.625 0
0.875 0.75 0
1 0.75 0
0.75 0.625 0
0.875 0.625 0
0.75 0.75 0
0.875 0.75 0
0.75 0.75 0
0.875 0.75 0
0.75 0.875 0
0.875 0.875 0
0.875 0.75 0
1 0.75 0
0.875 0.875 0
1 0.875 0
0.875 0.875 0
1 0.875 0
0.875 1 0
1 1 0
0.75 0.875 0
0.875 0.875 0
0.75 1 0
0.875 1 0
0.5 0.75 0
0.625 0.75 0
0.5 0.875 0
0.625 0.875 0
0.625 0.75 0
0.75 0.75 0
0.625 0.875 0
0.75 0.875 0
0.625 0.875 0
0.75 0.875 0
0.625 1 0
0.75 1 0
0.5 0.875 0
0.625 0.875 0
0.5 1 0
0.625 1 0
0 0.5 0
0.125 0.5 0
0 0.625 0
0.125 0.625 0
0.125 0.5 0
0.25 0.5 0
0.125 0.625 0
0.25 0.625 0
0.125 0.625 0
0.25 0.625 0
0.125 0.75 0
0.25 0.75 0
0 0.625 0
0.125 0.625 0
0 0.75 0
0.125 0.75 0
0.25 0.5 0
0.375 0.5 0
0.25 0.625 0
0.375 0.625 0
0.375 0.5 0
0.5 0.5 0
0.375 0.625 0
0.5 0.625 0
0.375 0.625 0
0.5 0.625 0
0.375 0.75 0
0.5 0.75 0
0.25 0.625 0
0.375 0.625 0
0.25 0.75 0
0.375 0.75 0
0.25 0.75 0
0.375 0.75 0
0.25 0.875 0
0.375 0.875 0
0.375 0.75 0
0.5 0.75 0
0.375 0.875 0
0.5 0.875 0
0.375 0.875 0
0.5 0.875 0
0.375 1 0
0.5 1 0
0.25 0.875 0
0.375 0.875 0
0.25 1 0
0.375 1 0
0 0.75 0
0.125 0.75 0
0 0.875 0
0.125 0.875 0
0.125 0.75 0
0.25 0.75 0
0.125 0.875 0
0.25 0.875 0
0.125 0.875 0
0.25 0.875 0
0.125 1 0
0.25 1 0
0 0.875 0
0.125 0.875 0
0 1 0
0.125 1 0
1 0 0
1.125 0 0
1 0.125 0
1.125 0.125 0
1.125 0 0
1.25 0 0
1.125 0.125 0
1.25 0.125 0
1.125 0.125 0
1.25 0.125 0
1.125 0.25 0
1.25 0.25 0
1 0.125 0
1.125 0.125 0
1 0.25 0
1.125 0.25 0
1.25 0 0
1.375 0 0
1.25 0.125 0
1.375 0.125 0
1.375 0 0
1.5 0 0
1.375 0.125 0
1.5 0.125 0
1.375 0.125 0
1.5 0.125 0
1.375 0.25 0
1.5 0.25 0
1.25 0.125 0
1.375 0.125 0
1.25 0.25 0
1.375 0.25 0
1.25 0.25 0
1.375 0.25 0
1.25 0.375 0
1.375 0.375 0
1.375 0.25 0
1.5 0.25 0
1.375 0.375 0
1.5 0.375 0
1.375 0.375 0
1.5 0.375 0
1.375 0.5 0
1.5 0.5 0
1.25 0.375 0
1.375 0.375 0
1.25 0.5 0
1.375 0.5 0
1 0.25 0
1.125 0.25 0
1 0.375 0
1.125 0.375 0
1.125 0.25 0
1.25 0.25 0
1.125 0.375 0
1.25 0.375 0
1.125 0.375 0
1.25 0.375 0
1.125 0.5 0
1.25 0.5 0
1 0.375 0
1.125 0.375 0
1 0.5 0
1.125 0.5 0
1.5 0 0
1.625 0 0
1.5 0.125 0
1.625 0.125 0
1.625 0 0
1.75 0 0
1.625 0.125 0
1.75 0.125 0
1.625 0.125 0
1.75 0.125 0
1.625 0.25 0
1.75 0.25 0
1.5 0.125 0
1.625 0.125 0
1.5 0.25 0
1.625 0.25 0
1.75 0 0
1.875 0 0
1.75 0.125 0
1.875 0.125 0
1.875 0 0
2 0 0
1.875 0.125 0
2 0.125 0
1.875 0.125 0
2 0.125 0
1.875 0.25 0
2 0.25 0
1.75 0.125 0
1.875 0.125 0
1.75 0.25 0
1.875 0.25 0
1.75 0.25 0
1.875 0.25 0
1.75 0.375 0
1.875 0.375 0
1.875 0.25 0
2 0.25 0
1.875 0.375 0
2 0.375 0
1.875 0.375 0
2 0.375 0
1.875 0.5 0
2 0.5 0
1.75 0.375 0
1.875 0.375 0
1.75 0.5 0
1.875 0.5 0
1.5 0.25 0
1.625 0.25 0
1.5 0.375 0
1.625 0.375 0
1.625 0.25 0
1.75 0.25 0
1.625 0.375 0
1.75 0.375 0
1.625 0.375 0
1.75 0.375 0
1.625 0.5 0
1.75 0.5 0
1.5 0.375 0
1.625 0.375 0
1.5 0.5 0
1.625 0.5 0
1.5 0.5 0
1.625 0.5 0
1.5 0.625 0
1.625 0.625 0
1.625 0.5 0
1.75 0.5 0
1.625 0.625 0
1.75 0.625 0
1.625 0.625 0
1.75 0.625 0
1.625 0.75 0
1.75 0.75 0
1.5 0.625 0
1.625 0.625 0
1.5 0.75 0
1.625 0.75 0
1.75 0.5 0
1.875 0.5 0
1.75 0.625 0
1.875 0.625 0
1.875 0.5 0
2 0.5 0
1.875 0.625 0
2 0.625 0
1.875 0.625 0
2 0.625 0
1.875 0.75 0
2 0.75 0
1.75 0.625 0
1.875 0.625 0
1.75 0.75 0
1.875 0.75 0
1.75 0.75 0
1.875 0.75 0
1.75 0.875 0
1.875 0.875 0
1.875 0.75 0
2 0.75 0
1.875 0.875 0
2 0.875 0
1.875 0.875 0
2 0.875 0
1.875 1 0
2 1 0
1.75 0.875 0
1.875 0.875 0
1.75 1 0
1.875 1 0
1.5 0.75 0
1.625 0.75 0
1.5 0.875 0
1.625 0.875 0
1.625 0.75 0
1.75 0.75 0
1.625 0.875 0
1.75 0.875 0
1.625 0.875 0
1.75 0.875 0
1.625 1 0
1.75 1 0
1.5 0.875 0
1.625 0.875 0
1.5 1 0
1.625 1 0
1 0.5 0
1.125 0.5 0
1 0.625 0
1.125 0.625 0
1.125 0.5 0
1.25 0.5 0
1.125 0.625 0
1.25 0.625 0
1.125 0.625 0
1.25 0.625 0
1.125 0.75 0
1.25 0.75 0
1 0.625 0
1.125 0.625 0
1 0.75 0
1.125 0.75 0
1.25 0.5 0
1.375 0.5 0
1.25 0.625 0
1.375 0.625 0
1.375 0.5 0
1.5 0.5 0
1.375 0.625 0
1.5 0.625 0
1.375 0.625 0
1.5 0.625 0
1.375 0.75 0
1.5 0.75 0
1.25 0.625 0
1.375 0.625 0
1.25 0.75 0
1.375 0.75 0
1.25 0.75 0
1.375 0.75 0
1.25 0.875 0
1.375 0.875 0
1.375 0.75 0
1.5 0.75 0
1.375 0.875 0
1.5 0.875 0
1.375 0.875 0
1.5 0.875 0
1.375 1 0
1.5 1 0
1.25 0.875 0
1.375 0.875 0
1.25 1 0
1.375 1 0
1 0.75 0
1.125 0.75 0
1 0.875 0
1.125 0.875 0
1.125 0.75 0
1.25 0.75 0
1.125 0.875 0
1.25 0.875 0
1.125 0.875 0
1.25 0.875 0
1.125 1 0
1.25 1 0
1 0.875 0
1.125 0.875 0
1 1 0
1.125 1 0
2 0 0
2.125 0 0
2 0.125 0
2.125 0.125 0
2.125 0 0
2.25 0 0
2.125 0.125 0
2.25 0.125 0
2.125 0.125 0
2.25 0.125 0
2.125 0.25 0
2.25 0.25 0
2 0.125 0
2.125 0.125 0
2 0.25 0
2.125 0.25 0
2.25 0 0
2.375 0 0
2.25 0.125 0
2.375 0.125 0
2.375 0 0
2.5 0 0
2.375 0.125 0
2.5 0.125 0
2.375 0.125 0
2.5 0.125 0
2.375 0.25 0
2.5 0.25 0
2.25 0.125 0
2.375 0.125 0
2.25 0.25 0
2.375 0.25 0
2.25 0.25 0
2.375 0.25 0
2.25 0.375 0
2.375 0.375 0
2.375 0.25 0
2.5 0.25 0
2.375 0.375 0
2.5 0.375 0
2.375 0.375 0
2.5 0.375 0
2.375 0.5 0
2.5 0.5 0
2.25 0.375 0
2.375 0.375 0
2.25 0.5 0
2.375 0.5 0
2 0.25 0
2.125 0.25 0
2 0.375 0
2.125 0.375 0
2.125 0.25 0
2.25 0.25 0
2.125 0.375 0
2.25 0.375 0
2.125 0.375 0
2.25 0.375 0
2.125 0.5 0
2.25 0.5 0
2 0.375 0
2.125 0.375 0
2 0.5 0
2.125 0.5 0
2.5 0 0
2.625 0 0
2.5 0.125 0
2.625 0.125 0
2.625 0 0
2.75 0 0
2.625 0.125 0
2.75 0.125 0
2.625 0.125 0
2.75 0.125 0
2.625 0.25 0
2.75 0.25 0
2.5 0.125 0
2.625 0.125 0
2.5 0.25 0
2.625 0.25 0
2.75 0 0
2.875 0 0
2.75 0.125 0
2.875 0.125 0
2.875 0 0
3 0 0
2.875 0.125 0
3 0.125 0
2.875 0.125 0
3 0.125 0
2.875 0.25 0
3 0.25 0
2.75 0.125 0
2.875 0.125 0
2.75 0.25 0
2.875 0.25 0
2.75 0.25 0
2.875 0.25 0
2.75 0.375 0
2.875 0.375 0
2.875 0.25 0
3 0.25 0
2.875 0.375 0
3 0.375 0
2.875 0.375 0
3 0.375 0
2.875 0.5 0
3 0.5 0
2.75 0.375 0
2.875 0.375 0
2.75 0.5 0
2.875 0.5 0
2.5 0.25 0
2.625 0.25 0
2.5 0.375 0
2.625 0.375 0
2.625 0.25 0
2.75 0.25 0
2.625 0.375 0
2.75 0.375 0
2.625 0.375 0
2.75 0.375 0
2.625 0.5 0
2.75 0.5 0
2.5 0.375 0
2.625 0.375 0
2.5 0.5 0
2.625 0.5 0
2.5 0.5 0
2.625 0.5 0
2.5 0.625 0
2.625 0.625 0
2.625 0.5 0
2.75 0.5 0
2.625 0.625 0
2.75 0.625 0
2.625 0.625 0
2.75 0.625 0
2.625 0.75 0
2.75 0.75 0
2.5 0.625 0
2.625 0.625 0
2.5 0.75 0
2.625 0.75 0
2.75 0.5 0
2.875 0.5 0
2.75 0.625 0
2.875 0.625 0
2.875 0.5 0
3 0.5 0
2.875 0.625 0
3 0.625 0
2.875 0.625 0
3 0.625 0
2.875 0.75 0
3 0.75 0
2.75 0.625 0
2.875 0.625 0
2.75 0.75 0
2.875 0.75 0
2.75 0.75 0
2.875 0.75 0
2.75 0.875 0
2.875 0.875 0
2.875 0.75 0
3 0.75 0
2.875 0.875 0
3 0.875 0
2.875 0.875 0
3 0.875 0
2.875 1 0
3 1 0
2.75 0.875 0
2.875 0.875 0
2.75 1 0
2.875 1 0
2.5 0.75 0
2.625 0.75 0
2.5 0.875 0
2.625 0.875 0
2.625 0.75 0
2.75 0.75 0
2.625 0.875 0
2.75 0.875 0
2.625 0.875 0
2.75 0.875 0
2.625 1 0
2.75 1 0
2.5 0.875 0
2.625 0.875 0
2.5 1 0
2.625 1 0
2 0.5 0
2.125 0.5 0
2 0.625 0
2.125 0.625 0
2.125 0.5 0
2.25 0.5 0
2.125 0.625 0
2.25 0.625 0
2.125 0.625 0
2.25 0.625 0
2.125 0.75 0
2.25 0.75 0
2 0.625 0
2.125 0.625 0
2 0.75 0
2.125 0.75 0
2.25 0.5 0
2.375 0.5 0
2.25 0.625 0
2.375 0.625 0
2.375 0.5 0
2.5 0.5 0
2.375 0.625 0
2.5 0.625 0
2.375 0.625 0
2.5 0.625 0
2.375 0.75 0
2.5 0.75 0
2.25 0.625 0
2.375 0.625 0
2.25 0.75 0
2.375 0.75 0
2.25 0.75 0
2.375 0.75 0
2.25 0.875 0
2.375 0.875 0
2.375 0.75 0
2.5 0.75 0
2.375 0.875 0
2.5 0.875 0
2.375 0.875 0
2.5 0.875 0
2.375 1 0
2.5 1 0
2.25 0.875 0
2.375 0.875 0
2.25 1 0
2.375 1 0
2 0.75 0
2.125 0.75 0
2 0.875 0
2.125 0.875 0
2.125 0.75 0
2.25 0.75 0
2.125 0.875 0
2.25 0.875 0
2.125 0.875 0
2.25 0.875 0
2.125 1 0
2.25 1 0
2 0.875 0
2.125 0.875 0
2 1 0
2.125 1 0
3 0 0
3.125 0 0
3 0.125 0
3.125 0.125 0
3.125 0 0
3.25 0 0
3.125 0.125 0
3.25 0.125 0
3.125 0.125 0
3.25 0.125 0
3.125 0.25 0
3.25 0.25 0
3 0.125 0
3.125 0.125 0
3 0.25 0
3.125 0.25 0
3.25 0 0
3.375 0 0
3.25 0.125 0
3.375 0.125 0
3.375 0 0
3.5 0 0
3.375 0.125 0
3.5 0.125 0
3.375 0.125 0
3.5 0.125 0
3.375 0.25 0
3.5 0.25 0
3.25 0.125 0
3.375 0.125 0
3.25 0.25 0
3.375 0.25 0
3.25 0.25 0
3.375 0.25 0
3.25 0.375 0
3.375 0.375 0
3.375 0.25 0
3.5 0.25 0
3.375 0.375 0
3.5 0.375 0
3.375 0.375 0
3.5 0.375 0
3.375 0.5 0
3.5 0.5 0
3.25 0.375 0
3.375 0.375 0
3.25 0.5 0
[...]
<CellData Scalars="attribute">
<DataArray type="Int32" Name="attribute" format="ascii">
1
1
1
1
1
1
1
1
1
1
1
1
1
1
1
1
1
1
1
1
1
1
1
1
1
1
1
1
1
1
1
1
1
1
1
1
1
1
1
1
1
1
1
1
1
1
1
1
1
1
1
1
1
1
1
1
1
1
1
1
1
1
1
1
1
1
1
1
1
1
1
1
1
1
1
1
1
1
1
1
1
1
1
1
1
1
1
1
1
1
1
1
1
1
1
1
1
1
1
1
1
1
1
1
1
1
1
1
1
1
1
1
1
1
1
1
1
1
1
1
1
1
1
1
1
1
1
1
1
1
1
1
1
1
1
1
1
1
1
1
1
1
1
1
1
1
1
1
1
1
1
1
1
1
1
1
1
1
1
1
1
1
1
1
1
1
1
1
1
1
1
1
1
1
1
1
1
1
1
1
1
1
1
1
1
1
1
1
1
1
1
1
1
1
1
1
1
1
1
1
1
1
1
1
1
1
1
1
1
1
1
1
1
1
1
1
1
1
1
1
1
1
1
1
1
1
1
1
1
1
1
1
1
1
1
1
1
1
1
1
1
1
1
1
1
1
1
1
1
1
1
1
1
1
1
1
2
2
2
2
2
2
2
2
2
2
2
2
2
2
2
2
2
2
2
2
2
2
2
2
2
2
2
2
2
2
2
2
2
2
2
2
2
2
2
2
2
2
2
2
2
2
2
2
2
2
2
2
2
2
2
2
2
2
2
2
2
2
2
2
2
2
2
2
2
2
2
2
2
2
2
2
2
2
2
2
2
2
2
2
2
2
2
2
2
2
2
2
2
2
2
2
2
2
2
2
2
2
2
2
2
2
2
2
2
2
2
2
2
2
2
2
2
2
2
2
2
2
2
2
2
2
2
2
2
2
2
2
2
2
2
2
2
2
2
2
2
2
2
2
2
2
2
2
2
2
2
2
2
2
2
2
2
2
2
2
2
2
2
2
2
2
2
2
2
2
2
2
2
2
2
2
2
2
2
2
2
2
2
2
2
2
2
2
2
2
2
2
2
2
2
2
2
2
2
2
2
2
2
2
2
2
2
2
2
2
2
2
2
2
2
2
2
2
2
2
2
2
2
2
2
2
2
2
2
2
2
2
2
2
2
2
2
2
2
2
2
2
2
2
2
2
2
2
2
2
2
2
2
2
2
2
</DataArray>
</CellData>
<PointData >
<DataArray type="Float64" Name="Pressure" NumberOfComponents="1" format="ascii" >
-0.000553414
-9.04835e-07
-0.000905616
-1.49785e-06
-9.04835e-07
5.9132e-11
-1.49785e-06
1.02404e-10
-1.49785e-06
1.02404e-10
-1.00558e-06
6.95409e-11
-0.000905616
-1.49785e-06
-0.000603753
-1.00558e-06
5.9132e-11
-2.44587e-15
1.02404e-10
-4.36718e-15
-2.44587e-15
1.02635e-19
-4.36718e-15
1.9e-19
-4.36718e-15
1.9e-19
-3.04091e-15
1.35886e-19
1.02404e-10
-4.36718e-15
6.95409e-11
-3.04091e-15
6.95409e-11
-3.04091e-15
3.56375e-11
-1.55388e-15
-3.04091e-15
1.35886e-19
-1.55388e-15
6.95096e-20
-1.55388e-15
6.95096e-20
-5.14514e-17
2.20542e-21
3.56375e-11
-1.55388e-15
1.25694e-12
-5.14514e-17
-0.000603753
-1.00558e-06
-0.000301886
-5.10627e-07
-1.00558e-06
6.95409e-11
-5.10627e-07
3.56375e-11
-5.10627e-07
3.56375e-11
-1.13101e-08
1.25694e-12
-0.000301886
-5.10627e-07
-1.39159e-08
-1.13101e-08
1.02635e-19
-2.23377e-24
1.9e-19
-4.28598e-24
-2.23377e-24
8.44783e-29
-4.28598e-24
1.62978e-28
-4.28598e-24
1.62978e-28
-3.17537e-24
1.22469e-28
1.9e-19
-4.28598e-24
1.35886e-19
-3.17537e-24
8.44783e-29
-7.7818e-34
1.62978e-28
-1.65587e-33
-7.7818e-34
4.53255e-38
-1.65587e-33
8.87467e-38
-1.65587e-33
8.87467e-38
-1.33917e-33
6.8725e-38
1.62978e-28
-1.65587e-33
1.22469e-28
-1.33917e-33
1.22469e-28
-1.33917e-33
6.36706e-29
-7.06144e-34
-1.33917e-33
6.8725e-38
-7.06144e-34
3.64973e-38
-7.06144e-34
3.64973e-38
-2.03637e-35
9.29286e-40
6.36706e-29
-7.06144e-34
1.82638e-30
-2.03637e-35
1.35886e-19
-3.17537e-24
6.95096e-20
-1.63429e-24
-3.17537e-24
1.22469e-28
-1.63429e-24
6.36706e-29
-1.63429e-24
6.36706e-29
-4.99242e-26
1.82638e-30
6.95096e-20
-1.63429e-24
2.20542e-21
-4.99242e-26
2.20542e-21
-4.99242e-26
-6.60376e-20
1.55648e-24
-4.99242e-26
1.82638e-30
1.55648e-24
-6.08842e-29
1.55648e-24
-6.08842e-29
3.16399e-24
-1.22145e-28
-6.60376e-20
1.55648e-24
-1.35247e-19
3.16399e-24
1.82638e-30
-2.03637e-35
-6.08842e-29
6.75291e-34
-2.03637e-35
9.29286e-40
6.75291e-34
-3.51195e-38
6.75291e-34
-3.51195e-38
1.33556e-33
-6.86137e-38
-6.08842e-29
6.75291e-34
-1.22145e-28
1.33556e-33
-1.22145e-28
1.33556e-33
-1.65579e-28
1.6811e-33
1.33556e-33
-6.86137e-38
1.6811e-33
-8.99884e-38
1.6811e-33
-8.99884e-38
7.95171e-34
-4.62028e-38
-1.65579e-28
1.6811e-33
-8.63799e-29
7.95171e-34
-1.35247e-19
3.16399e-24
-1.93388e-19
4.35896e-24
3.16399e-24
-1.22145e-28
4.35896e-24
-1.65579e-28
4.35896e-24
-1.65579e-28
2.288e-24
-8.63799e-29
-1.93388e-19
4.35896e-24
-1.05334e-19
2.288e-24
-1.39159e-08
-1.13101e-08
0.000301864
4.92374e-07
-1.13101e-08
1.25694e-12
4.92374e-07
-3.36134e-11
4.92374e-07
-3.36134e-11
1.00043e-06
-6.89848e-11
0.000301864
4.92374e-07
0.000603747
1.00043e-06
1.25694e-12
-5.14514e-17
-3.36134e-11
1.47186e-15
-5.14514e-17
2.20542e-21
1.47186e-15
-6.60376e-20
1.47186e-15
-6.60376e-20
3.02184e-15
-1.35247e-19
-3.36134e-11
1.47186e-15
-6.89848e-11
3.02184e-15
-6.89848e-11
3.02184e-15
-1.043e-10
4.44847e-15
3.02184e-15
-1.35247e-19
4.44847e-15
-1.93388e-19
4.44847e-15
-1.93388e-19
2.51507e-15
-1.05334e-19
-1.043e-10
4.44847e-15
-6.10734e-11
2.51507e-15
0.000603747
1.00043e-06
0.000905636
1.51471e-06
1.00043e-06
-6.89848e-11
1.51471e-06
-1.043e-10
1.51471e-06
-1.043e-10
9.22693e-07
-6.10734e-11
0.000905636
1.51471e-06
0.000553436
9.22693e-07
4.53255e-38
7.21389e-44
8.87467e-38
2.78588e-44
7.21389e-44
1.91273e-47
2.78588e-44
3.71159e-47
2.78588e-44
3.71159e-47
-4.44931e-44
2.8966e-47
8.87467e-38
2.78588e-44
6.8725e-38
-4.44931e-44
1.91273e-47
1.85536e-52
3.71159e-47
3.14062e-52
1.85536e-52
6.7821e-57
3.14062e-52
1.29236e-56
3.14062e-52
1.29236e-56
2.16817e-52
1.00311e-56
3.71159e-47
3.14062e-52
2.8966e-47
2.16817e-52
2.8966e-47
2.16817e-52
1.56112e-47
1.1302e-52
2.16817e-52
1.00311e-56
1.1302e-52
5.43892e-57
1.1302e-52
5.43892e-57
1.90093e-54
1.03451e-58
1.56112e-47
1.1302e-52
3.45847e-49
1.90093e-54
6.8725e-38
-4.44931e-44
3.64973e-38
-3.0452e-44
-4.44931e-44
2.8966e-47
-3.0452e-44
1.56112e-47
-3.0452e-44
1.56112e-47
-1.74715e-45
3.45847e-49
3.64973e-38
-3.0452e-44
9.29286e-40
-1.74715e-45
6.7821e-57
9.23369e-62
1.29236e-56
1.6553e-61
9.23369e-62
1.98555e-66
1.6553e-61
3.72922e-66
1.6553e-61
3.72922e-66
1.21621e-61
2.87467e-66
1.29236e-56
1.6553e-61
1.00311e-56
1.21621e-61
1.98555e-66
2.84316e-71
3.72922e-66
5.19145e-71
2.84316e-71
4.67467e-76
5.19145e-71
8.70778e-76
5.19145e-71
8.70778e-76
3.89988e-71
6.68681e-76
3.72922e-66
5.19145e-71
2.87467e-66
3.89988e-71
2.87467e-66
3.89988e-71
1.56081e-66
2.09672e-71
3.89988e-71
6.68681e-76
2.09672e-71
3.63141e-76
2.09672e-71
3.63141e-76
3.01565e-73
5.0867e-78
1.56081e-66
2.09672e-71
2.54251e-68
3.01565e-73
1.00311e-56
1.21621e-61
5.43892e-57
6.47597e-62
1.21621e-61
2.87467e-66
6.47597e-62
1.56081e-66
6.47597e-62
1.56081e-66
1.04068e-63
2.54251e-68
5.43892e-57
6.47597e-62
1.03451e-58
1.04068e-63
1.03451e-58
1.04068e-63
-5.29002e-57
-6.32872e-62
1.04068e-63
2.54251e-68
-6.32872e-62
-1.52447e-66
-6.32872e-62
-1.52447e-66
-1.2166e-61
-2.87367e-66
-5.29002e-57
-6.32872e-62
-1.00247e-56
-1.2166e-61
2.54251e-68
3.01565e-73
-1.52447e-66
-2.05407e-71
3.01565e-73
5.0867e-78
-2.05407e-71
-3.55903e-76
-2.05407e-71
-3.55903e-76
-3.90049e-71
-6.68562e-76
-1.52447e-66
-2.05407e-71
-2.87367e-66
-3.90049e-71
-2.87367e-66
-3.90049e-71
-3.76353e-66
-5.23641e-71
-3.90049e-71
-6.68562e-76
-5.23641e-71
-8.7777e-76
-5.23641e-71
-8.7777e-76
-2.87519e-71
-4.72427e-76
-3.76353e-66
-5.23641e-71
-2.00986e-66
-2.87519e-71
-1.00247e-56
-1.2166e-61
-1.30601e-56
-1.67172e-61
-1.2166e-61
-2.87367e-66
-1.67172e-61
-3.76353e-66
-1.67172e-61
-3.76353e-66
-9.35213e-62
-2.00986e-66
-1.30601e-56
-1.67172e-61
-6.87843e-57
-9.35213e-62
9.29286e-40
-1.74715e-45
-3.51195e-38
2.77166e-44
-1.74715e-45
3.45847e-49
2.77166e-44
-1.51078e-47
2.77166e-44
-1.51078e-47
4.36143e-44
-2.8936e-47
-3.51195e-38
2.77166e-44
-6.86137e-38
4.36143e-44
3.45847e-49
1.90093e-54
-1.51078e-47
-1.10343e-52
1.90093e-54
1.03451e-58
-1.10343e-52
-5.29002e-57
-1.10343e-52
-5.29002e-57
-2.17017e-52
-1.00247e-56
-1.51078e-47
-1.10343e-52
-2.8936e-47
-2.17017e-52
-2.8936e-47
-2.17017e-52
-3.75672e-47
-3.17606e-52
-2.17017e-52
-1.00247e-56
-3.17606e-52
-1.30601e-56
-3.17606e-52
-1.30601e-56
-1.88196e-52
-6.87843e-57
-3.75672e-47
-3.17606e-52
-1.94443e-47
-1.88196e-52
-6.86137e-38
4.36143e-44
-8.99884e-38
-2.8026e-44
4.36143e-44
-2.8936e-47
-2.8026e-44
-3.75672e-47
-2.8026e-44
-3.75672e-47
-7.28599e-44
-1.94443e-47
-8.99884e-38
-2.8026e-44
-4.62028e-38
-7.28599e-44
4.67467e-76
6.35008e-81
8.70778e-76
1.16803e-80
6.35008e-81
8.79019e-86
1.16803e-80
1.63072e-85
1.16803e-80
1.63072e-85
8.86741e-81
1.25076e-85
8.70778e-76
1.16803e-80
6.68681e-76
8.86741e-81
8.79019e-86
1.0943e-90
1.63072e-85
2.01889e-90
1.0943e-90
1.3295e-95
2.01889e-90
2.46157e-95
2.01889e-90
2.46157e-95
1.54122e-90
1.8883e-95
1.63072e-85
2.01889e-90
1.25076e-85
1.54122e-90
1.25076e-85
1.54122e-90
6.79402e-86
8.35372e-91
1.54122e-90
1.8883e-95
8.35372e-91
1.02603e-95
8.35372e-91
1.02603e-95
9.28975e-93
1.07798e-97
6.79402e-86
8.35372e-91
8.22553e-88
9.28975e-93
6.68681e-76
8.86741e-81
3.63141e-76
4.79245e-81
8.86741e-81
1.25076e-85
4.79245e-81
6.79402e-86
4.79245e-81
6.79402e-86
6.07782e-83
8.22553e-88
3.63141e-76
4.79245e-81
5.0867e-78
6.07782e-83
1.3295e-95
1.50429e-100
2.46157e-95
2.77843e-100
1.50429e-100
1.6374e-105
2.77843e-100
3.02859e-105
2.77843e-100
3.02859e-105
2.12766e-100
2.32471e-105
2.46157e-95
2.77843e-100
1.8883e-95
2.12766e-100
1.6374e-105
1.68575e-110
3.02859e-105
3.11457e-110
1.68575e-110
1.66362e-115
3.11457e-110
3.07522e-115
3.11457e-110
3.07522e-115
2.3895e-110
2.36216e-115
3.02859e-105
3.11457e-110
2.32471e-105
2.3895e-110
2.32471e-105
2.3895e-110
1.26354e-105
1.2983e-110
2.3895e-110
2.36216e-115
1.2983e-110
1.28417e-115
1.2983e-110
1.28417e-115
1.10392e-112
1.02335e-117
1.26354e-105
1.2983e-110
1.15513e-107
1.10392e-112
1.8883e-95
2.12766e-100
1.02603e-95
1.15506e-100
2.12766e-100
2.32471e-105
1.15506e-100
1.26354e-105
1.15506e-100
1.26354e-105
1.12369e-102
1.15513e-107
1.02603e-95
1.15506e-100
1.07798e-97
1.12369e-102
1.07798e-97
1.12369e-102
-1.01076e-95
-1.13917e-100
1.12369e-102
1.15513e-107
-1.13917e-100
-1.24718e-105
-1.13917e-100
-1.24718e-105
-2.12769e-100
-2.32465e-105
-1.01076e-95
-1.13917e-100
-1.88821e-95
-2.12769e-100
1.15513e-107
1.10392e-112
-1.24718e-105
-1.28269e-110
1.10392e-112
1.02335e-117
-1.28269e-110
-1.26968e-115
-1.28269e-110
-1.26968e-115
-2.38949e-110
-2.36211e-115
-1.24718e-105
-1.28269e-110
-2.32465e-105
-2.38949e-110
-2.32465e-105
-2.38949e-110
-3.04477e-105
-3.13013e-110
-2.38949e-110
-2.36211e-115
-3.13013e-110
-3.08955e-115
-3.13013e-110
-3.08955e-115
-1.69677e-110
-1.67377e-115
-3.04477e-105
-3.13013e-110
-1.64887e-105
-1.69677e-110
-1.88821e-95
-2.12769e-100
-2.47664e-95
-2.79436e-100
-2.12769e-100
-2.32465e-105
-2.79436e-100
-3.04477e-105
-2.79436e-100
-3.04477e-105
-1.51556e-100
-1.64887e-105
-2.47664e-95
-2.79436e-100
-1.34018e-95
-1.51556e-100
5.0867e-78
6.07782e-83
-3.55903e-76
-4.70652e-81
6.07782e-83
8.22553e-88
-4.70652e-81
-6.67731e-86
-4.70652e-81
-6.67731e-86
-8.8681e-81
-1.25065e-85
-3.55903e-76
-4.70652e-81
-6.68562e-76
-8.8681e-81
8.22553e-88
9.28975e-93
-6.67731e-86
-8.22239e-91
9.28975e-93
1.07798e-97
-8.22239e-91
-1.01076e-95
-8.22239e-91
-1.01076e-95
-1.54127e-90
-1.88821e-95
-6.67731e-86
-8.22239e-91
-1.25065e-85
-1.54127e-90
-1.25065e-85
-1.54127e-90
-1.64215e-85
-2.03217e-90
-1.54127e-90
-1.88821e-95
-2.03217e-90
-2.47664e-95
-2.03217e-90
-2.47664e-95
-1.1037e-90
-1.34018e-95
-1.64215e-85
-2.03217e-90
-8.87128e-86
-1.1037e-90
-6.68562e-76
-8.8681e-81
-8.7777e-76
-1.17684e-80
-8.8681e-81
-1.25065e-85
-1.17684e-80
-1.64215e-85
-1.17684e-80
-1.64215e-85
-6.41262e-81
-8.87128e-86
-8.7777e-76
-1.17684e-80
-4.72427e-76
-6.41262e-81
1.66362e-115
1.56485e-120
3.07522e-115
2.89105e-120
1.56485e-120
1.41131e-125
2.89105e-120
2.6077e-125
2.89105e-120
2.6077e-125
2.22063e-120
2.00431e-125
3.07522e-115
2.89105e-120
2.36216e-115
2.22063e-120
1.41131e-125
1.21863e-130
2.6077e-125
2.25098e-130
1.21863e-130
1.01043e-135
2.25098e-130
1.86632e-135
2.25098e-130
1.86632e-135
1.73034e-130
1.43522e-135
2.6077e-125
2.25098e-130
2.00431e-125
1.73034e-130
2.00431e-125
1.73034e-130
1.08975e-125
9.40737e-131
1.73034e-130
1.43522e-135
9.40737e-131
7.80363e-136
9.40737e-131
7.80363e-136
6.10826e-133
4.74031e-138
1.08975e-125
9.40737e-131
7.57884e-128
6.10826e-133
2.36216e-115
2.22063e-120
1.28417e-115
1.20706e-120
2.22063e-120
2.00431e-125
1.20706e-120
1.08975e-125
1.20706e-120
1.08975e-125
8.96834e-123
7.57884e-128
1.28417e-115
1.20706e-120
1.02335e-117
8.96834e-123
1.01043e-135
8.04542e-141
1.86632e-135
1.48573e-140
8.04542e-141
6.16243e-146
1.48573e-140
1.13789e-145
1.48573e-140
1.13789e-145
1.14272e-140
8.75408e-146
1.86632e-135
1.48573e-140
1.43522e-135
1.14272e-140
6.16243e-146
4.54322e-151
1.13789e-145
8.38766e-151
4.54322e-151
3.22769e-156
8.38766e-151
5.95826e-156
8.38766e-151
5.95826e-156
6.45377e-151
4.58531e-156
1.13789e-145
8.38766e-151
8.75408e-146
6.45377e-151
8.75408e-146
6.45377e-151
4.75968e-146
3.50883e-151
6.45377e-151
4.58531e-156
3.50883e-151
2.49292e-156
3.50883e-151
2.49292e-156
1.74155e-153
1.15741e-158
4.75968e-146
3.50883e-151
2.52699e-148
1.74155e-153
1.43522e-135
1.14272e-140
7.80363e-136
6.21295e-141
1.14272e-140
8.75408e-146
6.21295e-141
4.75968e-146
6.21295e-141
4.75968e-146
3.5264e-143
2.52699e-148
7.80363e-136
6.21295e-141
4.74031e-138
3.5264e-143
4.74031e-138
3.5264e-143
-7.7365e-136
-6.16301e-141
3.5264e-143
2.52699e-148
-6.16301e-141
-4.72388e-146
-6.16301e-141
-4.72388e-146
-1.14269e-140
-8.75383e-146
-7.7365e-136
-6.16301e-141
-1.43519e-135
-1.14269e-140
2.52699e-148
1.74155e-153
-4.72388e-146
-3.48415e-151
1.74155e-153
1.15741e-158
-3.48415e-151
-2.47651e-156
-3.48415e-151
-2.47651e-156
-6.45358e-151
-4.58517e-156
-4.72388e-146
-3.48415e-151
-8.75383e-146
-6.45358e-151
-8.75383e-146
-6.45358e-151
-1.14141e-145
-8.41186e-151
-6.45358e-151
-4.58517e-156
-8.41186e-151
-5.97431e-156
-8.41186e-151
-5.97431e-156
-4.56036e-151
-3.23906e-156
-1.14141e-145
-8.41186e-151
-6.18734e-146
-4.56036e-151
-1.43519e-135
-1.14269e-140
-1.87294e-135
-1.49065e-140
-1.14269e-140
-8.75383e-146
-1.49065e-140
-1.14141e-145
-1.49065e-140
-1.14141e-145
-8.08025e-141
-6.18734e-146
-1.87294e-135
-1.49065e-140
-1.01511e-135
-8.08025e-141
1.02335e-117
8.96834e-123
-1.26968e-115
-1.19437e-120
8.96834e-123
7.57884e-128
-1.19437e-120
-1.07902e-125
-1.19437e-120
-1.07902e-125
-2.2206e-120
-2.00427e-125
-1.26968e-115
-1.19437e-120
-2.36211e-115
-2.2206e-120
7.57884e-128
6.10826e-133
-1.07902e-125
-9.32091e-131
6.10826e-133
4.74031e-138
-9.32091e-131
-7.7365e-136
-9.32091e-131
-7.7365e-136
-1.73031e-130
-1.43519e-135
-1.07902e-125
-9.32091e-131
-2.00427e-125
-1.73031e-130
-2.00427e-125
-1.73031e-130
-2.6183e-125
-2.25953e-130
-1.73031e-130
-1.43519e-135
-2.25953e-130
-1.87294e-135
-2.25953e-130
-1.87294e-135
-1.22468e-130
-1.01511e-135
-2.6183e-125
-2.25953e-130
-1.41882e-125
-1.22468e-130
-2.36211e-115
-2.2206e-120
-3.08955e-115
-2.90365e-120
-2.2206e-120
-2.00427e-125
-2.90365e-120
-2.6183e-125
-2.90365e-120
-2.6183e-125
-1.57377e-120
-1.41882e-125
-3.08955e-115
-2.90365e-120
-1.67377e-115
-1.57377e-120
3.22769e-156
2.21127e-161
5.95826e-156
4.08139e-161
2.21127e-161
1.46218e-166
4.08139e-161
2.69847e-166
4.08139e-161
2.69847e-166
3.14131e-161
2.07719e-166
5.95826e-156
4.08139e-161
4.58531e-156
3.14131e-161
1.46218e-166
9.33828e-172
2.69847e-166
1.72318e-171
9.33828e-172
5.76452e-177
1.72318e-171
1.06361e-176
1.72318e-171
1.06361e-176
1.32658e-171
8.18889e-177
2.69847e-166
1.72318e-171
2.07719e-166
1.32658e-171
2.07719e-166
1.32658e-171
1.12922e-166
7.2113e-172
1.32658e-171
8.18889e-177
7.2113e-172
4.45127e-177
7.2113e-172
4.45127e-177
2.74038e-174
1.58281e-179
1.12922e-166
7.2113e-172
4.58702e-169
2.74038e-174
4.58531e-156
3.14131e-161
2.49292e-156
1.70777e-161
3.14131e-161
2.07719e-166
1.70777e-161
1.12922e-166
1.70777e-161
1.12922e-166
7.41514e-164
4.58702e-169
2.49292e-156
1.70777e-161
1.15741e-158
7.41514e-164
5.76452e-177
3.44162e-182
1.06361e-176
6.34941e-182
3.44162e-182
1.98857e-187
6.34941e-182
3.66832e-187
6.34941e-182
3.66832e-187
4.88892e-182
2.82475e-187
1.06361e-176
6.34941e-182
8.18889e-177
4.88892e-182
1.98857e-187
1.1126e-192
3.66832e-187
2.05223e-192
1.1126e-192
6.03119e-198
2.05223e-192
1.11237e-197
2.05223e-192
1.11237e-197
1.5804e-192
8.56678e-198
3.66832e-187
2.05223e-192
2.82475e-187
1.5804e-192
2.82475e-187
1.5804e-192
1.53531e-187
8.58938e-193
1.5804e-192
8.56678e-198
8.58938e-193
4.65575e-198
8.58938e-193
4.65575e-198
2.50391e-195
1.27061e-200
1.53531e-187
8.58938e-193
4.78145e-190
2.50391e-195
8.18889e-177
4.88892e-182
4.45127e-177
2.65736e-182
4.88892e-182
2.82475e-187
2.65736e-182
1.53531e-187
2.65736e-182
1.53531e-187
8.84227e-185
4.78145e-190
4.45127e-177
2.65736e-182
1.58281e-179
8.84227e-185
1.58281e-179
8.84227e-185
-4.4288e-177
-2.6448e-182
8.84227e-185
4.78145e-190
-2.6448e-182
-1.52851e-187
-2.6448e-182
-1.52851e-187
-4.88872e-182
-2.82463e-187
-4.4288e-177
-2.6448e-182
-8.18856e-177
-4.88872e-182
4.78145e-190
2.50391e-195
-1.52851e-187
-8.55377e-193
2.50391e-195
1.27061e-200
-8.55377e-193
-4.63767e-198
-8.55377e-193
-4.63767e-198
-1.58034e-192
-8.56639e-198
-1.52851e-187
-8.55377e-193
-2.82463e-187
-1.58034e-192
-2.82463e-187
-1.58034e-192
-3.67486e-187
-2.05565e-192
-1.58034e-192
-8.56639e-198
-2.05565e-192
-1.1141e-197
-2.05565e-192
-1.1141e-197
-1.11502e-192
-6.04342e-198
-3.67486e-187
-2.05565e-192
-1.9932e-187
-1.11502e-192
-8.18856e-177
-4.88872e-182
-1.06578e-176
-6.36154e-182
-4.88872e-182
-2.82463e-187
-6.36154e-182
-3.67486e-187
-6.36154e-182
-3.67486e-187
-3.45021e-182
-1.9932e-187
-1.06578e-176
-6.36154e-182
-5.77993e-177
-3.45021e-182
1.15741e-158
7.41514e-164
-2.47651e-156
-1.69726e-161
7.41514e-164
4.58702e-169
-1.69726e-161
-1.12271e-166
-1.69726e-161
-1.12271e-166
-3.1412e-161
-2.07711e-166
-2.47651e-156
-1.69726e-161
-4.58517e-156
-3.1412e-161
4.58702e-169
2.74038e-174
-1.12271e-166
-7.1724e-172
2.74038e-174
1.58281e-179
-7.1724e-172
-4.4288e-177
-7.1724e-172
-4.4288e-177
-1.32653e-171
-8.18856e-177
-1.12271e-166
-7.1724e-172
-2.07711e-166
-1.32653e-171
-2.07711e-166
-1.32653e-171
-2.7048e-166
-1.72696e-171
-1.32653e-171
-8.18856e-177
-1.72696e-171
-1.06578e-176
-1.72696e-171
-1.06578e-176
-9.36503e-172
-5.77993e-177
-2.7048e-166
-1.72696e-171
-1.46666e-166
-9.36503e-172
-4.58517e-156
-3.1412e-161
-5.97431e-156
-4.09166e-161
-3.1412e-161
-2.07711e-166
-4.09166e-161
-2.7048e-166
-4.09166e-161
-2.7048e-166
-2.21854e-161
-1.46666e-166
-5.97431e-156
-4.09166e-161
-3.23906e-156
-2.21854e-161
6.03119e-198
3.16916e-203
1.11237e-197
5.8446e-203
3.16916e-203
1.61501e-208
5.8446e-203
2.97817e-208
5.8446e-203
2.97817e-208
4.50138e-203
2.29383e-208
1.11237e-197
5.8446e-203
8.56678e-198
4.50138e-203
1.61501e-208
7.98516e-214
2.97817e-208
1.4724e-213
7.98516e-214
3.83227e-219
1.4724e-213
7.0659e-219
1.4724e-213
7.0659e-219
1.13412e-213
5.44273e-219
2.97817e-208
1.4724e-213
2.29383e-208
1.13412e-213
2.29383e-208
1.13412e-213
1.2465e-208
6.16269e-214
1.13412e-213
5.44273e-219
6.16269e-214
2.9574e-219
6.16269e-214
2.9574e-219
1.3813e-216
6.20978e-222
1.2465e-208
6.16269e-214
2.98292e-211
1.3813e-216
8.56678e-198
4.50138e-203
4.65575e-198
2.44623e-203
4.50138e-203
2.29383e-208
2.44623e-203
1.2465e-208
2.44623e-203
1.2465e-208
6.25095e-206
2.98292e-211
4.65575e-198
2.44623e-203
1.27061e-200
6.25095e-206
3.83227e-219
1.78591e-224
7.0659e-219
3.29262e-224
1.78591e-224
8.08448e-230
3.29262e-224
1.49042e-229
3.29262e-224
1.49042e-229
2.53634e-224
1.14812e-229
7.0659e-219
3.29262e-224
5.44273e-219
2.53634e-224
8.08448e-230
3.55618e-235
1.49042e-229
6.55562e-235
3.55618e-235
1.52051e-240
6.55562e-235
2.80283e-240
6.55562e-235
2.80283e-240
5.05018e-235
2.15924e-240
1.49042e-229
6.55562e-235
1.14812e-229
5.05018e-235
1.14812e-229
5.05018e-235
6.23803e-230
2.74379e-235
5.05018e-235
2.15924e-240
2.74379e-235
1.17309e-240
2.74379e-235
1.17309e-240
4.74202e-238
1.90084e-243
6.23803e-230
2.74379e-235
1.15015e-232
4.74202e-238
5.44273e-219
2.53634e-224
2.9574e-219
1.37811e-224
2.53634e-224
1.14812e-229
1.37811e-224
6.23803e-230
1.37811e-224
6.23803e-230
2.71129e-227
1.15015e-232
2.9574e-219
1.37811e-224
6.20978e-222
2.71129e-227
6.20978e-222
2.71129e-227
-2.94854e-219
-1.37424e-224
2.71129e-227
1.15015e-232
-1.37424e-224
-6.22159e-230
-1.37424e-224
-6.22159e-230
-2.53621e-224
-1.14806e-229
-2.94854e-219
-1.37424e-224
-5.44246e-219
-2.53621e-224
1.15015e-232
4.74202e-238
-6.22159e-230
-2.737e-235
4.74202e-238
1.90084e-243
-2.737e-235
-1.17036e-240
-2.737e-235
-1.17036e-240
-5.04992e-235
-2.15913e-240
-6.22159e-230
-2.737e-235
-1.14806e-229
-5.04992e-235
-1.14806e-229
-5.04992e-235
-1.49195e-229
-6.56188e-235
-5.04992e-235
-2.15913e-240
-6.56188e-235
-2.80532e-240
-6.56188e-235
-2.80532e-240
-3.56061e-235
-1.52228e-240
-1.49195e-229
-6.56188e-235
-8.09529e-230
-3.56061e-235
-5.44246e-219
-2.53621e-224
-7.07422e-219
-3.29624e-224