<VTKFile type="UnstructuredGrid" version="0.1" byte_order="LittleEndian">
<UnstructuredGrid>
<Piece NumberOfPoints="2048" NumberOfCells="512">
<Points>
<DataArray type="Float64" NumberOfComponents="3" format="ascii">
0 0 0
0.125 0 0
0 0.125 0
0.125 0.125 0
0.125 0 0
0.25 0 0
0.125 0.125 0
0.25 0.125 0
0.125 0.125 0
0.25 0.125 0
0.125 0.25 0
0.25 0.25 0
0 0.125 0
0.125 0.125 0
0 0.25 0
0.125 0.25 0
0.25 0 0
0.375 0 0
0.25 0.125 0
0.375 0.125 0
0.375 0 0
0.5 0 0
0.375 0.125 0
0.5 0.125 0
0.375 0.125 0
0.5 0.125 0
0.375 0.25 0
0.5 0.25 0
0.25 0.125 0
0.375 0.125 0
0.25 0.25 0
0.375 0.25 0
0.25 0.25 0
0.375 0.25 0
0.25 0.375 0
0.375 0.375 0
0.375 0.25 0
0.5 0.25 0
0.375 0.375 0
0.5 0.375 0
0.375 0.375 0
0.5 0.375 0
0.375 0.5 0
0.5 0.5 0
0.25 0.375 0
0.375 0.375 0
0.25 0.5 0
0.375 0.5 0
0 0.25 0
0.125 0.25 0
0 0.375 0
0.125 0.375 0
0.125 0.25 0
0.25 0.25 0
0.125 0.375 0
0.25 0.375 0
0.125 0.375 0
0.25 0.375 0
0.125 0.5 0
0.25 0.5 0
0 0.375 0
0.125 0.375 0
0 0.5 0
0.125 0.5 0
0.5 0 0
0.625 0 0
0.5 0.125 0
0.625 0.125 0
0.625 0 0
0.75 0 0
0.625 0.125 0
0.75 0.125 0
0.625 0.125 0
0.75 0.125 0
0.625 0.25 0
0.75 0.25 0
0.5 0.125 0
0.625 0.125 0
0.5 0.25 0
0.625 0.25 0
0.75 0 0
0.875 0 0
0.75 0.125 0
0.875 0.125 0
0.875 0 0
1 0 0
0.875 0.125 0
1 0.125 0
0.875 0.125 0
1 0.125 0
0.875 0.25 0
1 0.25 0
0.75 0.125 0
0.875 0.125 0
0.75 0.25 0
0.875 0.25 0
0.75 0.25 0
0.875 0.25 0
0.75 0.375 0
0.875 0.375 0
0.875 0.25 0
1 0.25 0
0.875 0.375 0
1 0.375 0
0.875 0.375 0
1 0.375 0
0.875 0.5 0
1 0.5 0
0.75 0.375 0
0.875 0.375 0
0.75 0.5 0
0.875 0.5 0
0.5 0.25 0
0.625 0.25 0
0.5 0.375 0
0.625 0.375 0
0.625 0.25 0
0.75 0.25 0
0.625 0.375 0
0.75 0.375 0
0.625 0.375 0
0.75 0.375 0
0.625 0.5 0
0.75 0.5 0
0.5 0.375 0
0.625 0.375 0
0.5 0.5 0
0.625 0.5 0
0.5 0.5 0
0.625 0.5 0
0.5 0.625 0
0.625 0.625 0
0.625 0.5 0
0.75 0.5 0
0.625 0.625 0
0.75 0.625 0
0.625 0.625 0
0.75 0.625 0
0.625 0.75 0
0.75 0.75 0
0.5 0.625 0
0.625 0.625 0
0.5 0.75 0
0.625 0.75 0
0.75 0.5 0
0.875 0.5 0
0.75 0.625 0
0.875 0.625 0
0.875 0.5 0
1 0.5 0
0.875 0.625 0
1 0.625 0
0.875 0.625 0
1 0.625 0
0.875 0.75 0
1 0.75 0
0.75 0.625 0
0.875 0.625 0
0.75 0.75 0
0.875 0.75 0
0.75 0.75 0
0.875 0.75 0
0.75 0.875 0
0.875 0.875 0
0.875 0.75 0
1 0.75 0
0.875 0.875 0
1 0.875 0
0.875 0.875 0
1 0.875 0
0.875 1 0
1 1 0
0.75 0.875 0
0.875 0.875 0
0.75 1 0
0.875 1 0
0.5 0.75 0
0.625 0.75 0
0.5 0.875 0
0.625 0.875 0
0.625 0.75 0
0.75 0.75 0
0.625 0.875 0
0.75 0.875 0
0.625 0.875 0
0.75 0.875 0
0.625 1 0
0.75 1 0
0.5 0.875 0
0.625 0.875 0
0.5 1 0
0.625 1 0
0 0.5 0
0.125 0.5 0
0 0.625 0
0.125 0.625 0
0.125 0.5 0
0.25 0.5 0
0.125 0.625 0
0.25 0.625 0
0.125 0.625 0
0.25 0.625 0
0.125 0.75 0
0.25 0.75 0
0 0.625 0
0.125 0.625 0
0 0.75 0
0.125 0.75 0
0.25 0.5 0
0.375 0.5 0
0.25 0.625 0
0.375 0.625 0
0.375 0.5 0
0.5 0.5 0
0.375 0.625 0
0.5 0.625 0
0.375 0.625 0
0.5 0.625 0
0.375 0.75 0
0.5 0.75 0
0.25 0.625 0
0.375 0.625 0
0.25 0.75 0
0.375 0.75 0
0.25 0.75 0
0.375 0.75 0
0.25 0.875 0
0.375 0.875 0
0.375 0.75 0
0.5 0.75 0
0.375 0.875 0
0.5 0.875 0
0.375 0.875 0
0.5 0.875 0
0.375 1 0
0.5 1 0
0.25 0.875 0
0.375 0.875 0
0.25 1 0
0.375 1 0
0 0.75 0
0.125 0.75 0
0 0.875 0
0.125 0.875 0
0.125 0.75 0
0.25 0.75 0
0.125 0.875 0
0.25 0.875 0
0.125 0.875 0
0.25 0.875 0
0.125 1 0
0.25 1 0
0 0.875 0
0.125 0.875 0
0 1 0
0.125 1 0
1 0 0
1.125 0 0
1 0.125 0
1.125 0.125 0
1.125 0 0
1.25 0 0
1.125 0.125 0
1.25 0.125 0
1.125 0.125 0
1.25 0.125 0
1.125 0.25 0
1.25 0.25 0
1 0.125 0
1.125 0.125 0
1 0.25 0
1.125 0.25 0
1.25 0 0
1.375 0 0
1.25 0.125 0
1.375 0.125 0
1.375 0 0
1.5 0 0
1.375 0.125 0
1.5 0.125 0
1.375 0.125 0
1.5 0.125 0
1.375 0.25 0
1.5 0.25 0
1.25 0.125 0
1.375 0.125 0
1.25 0.25 0
1.375 0.25 0
1.25 0.25 0
1.375 0.25 0
1.25 0.375 0
1.375 0.375 0
1.375 0.25 0
1.5 0.25 0
1.375 0.375 0
1.5 0.375 0
1.375 0.375 0
1.5 0.375 0
1.375 0.5 0
1.5 0.5 0
1.25 0.375 0
1.375 0.375 0
1.25 0.5 0
1.375 0.5 0
1 0.25 0
1.125 0.25 0
1 0.375 0
1.125 0.375 0
1.125 0.25 0
1.25 0.25 0
1.125 0.375 0
1.25 0.375 0
1.125 0.375 0
1.25 0.375 0
1.125 0.5 0
1.25 0.5 0
1 0.375 0
1.125 0.375 0
1 0.5 0
1.125 0.5 0
1.5 0 0
1.625 0 0
1.5 0.125 0
1.625 0.125 0
1.625 0 0
1.75 0 0
1.625 0.125 0
1.75 0.125 0
1.625 0.125 0
1.75 0.125 0
1.625 0.25 0
1.75 0.25 0
1.5 0.125 0
1.625 0.125 0
1.5 0.25 0
1.625 0.25 0
1.75 0 0
1.875 0 0
1.75 0.125 0
1.875 0.125 0
1.875 0 0
2 0 0
1.875 0.125 0
2 0.125 0
1.875 0.125 0
2 0.125 0
1.875 0.25 0
2 0.25 0
1.75 0.125 0
1.875 0.125 0
1.75 0.25 0
1.875 0.25 0
1.75 0.25 0
1.875 0.25 0
1.75 0.375 0
1.875 0.375 0
1.875 0.25 0
2 0.25 0
1.875 0.375 0
2 0.375 0
1.875 0.375 0
2 0.375 0
1.875 0.5 0
2 0.5 0
1.75 0.375 0
1.875 0.375 0
1.75 0.5 0
1.875 0.5 0
1.5 0.25 0
1.625 0.25 0
1.5 0.375 0
1.625 0.375 0
1.625 0.25 0
1.75 0.25 0
1.625 0.375 0
1.75 0.375 0
1.625 0.375 0
1.75 0.375 0
1.625 0.5 0
1.75 0.5 0
1.5 0.375 0
1.625 0.375 0
1.5 0.5 0
1.625 0.5 0
1.5 0.5 0
1.625 0.5 0
1.5 0.625 0
1.625 0.625 0
1.625 0.5 0
1.75 0.5 0
1.625 0.625 0
1.75 0.625 0
1.625 0.625 0
1.75 0.625 0
1.625 0.75 0
1.75 0.75 0
1.5 0.625 0
1.625 0.625 0
1.5 0.75 0
1.625 0.75 0
1.75 0.5 0
1.875 0.5 0
1.75 0.625 0
1.875 0.625 0
1.875 0.5 0
2 0.5 0
1.875 0.625 0
2 0.625 0
1.875 0.625 0
2 0.625 0
1.875 0.75 0
2 0.75 0
1.75 0.625 0
1.875 0.625 0
1.75 0.75 0
1.875 0.75 0
1.75 0.75 0
1.875 0.75 0
1.75 0.875 0
1.875 0.875 0
1.875 0.75 0
2 0.75 0
1.875 0.875 0
2 0.875 0
1.875 0.875 0
2 0.875 0
1.875 1 0
2 1 0
1.75 0.875 0
1.875 0.875 0
1.75 1 0
1.875 1 0
1.5 0.75 0
1.625 0.75 0
1.5 0.875 0
1.625 0.875 0
1.625 0.75 0
1.75 0.75 0
1.625 0.875 0
1.75 0.875 0
1.625 0.875 0
1.75 0.875 0
1.625 1 0
1.75 1 0
1.5 0.875 0
1.625 0.875 0
1.5 1 0
1.625 1 0
1 0.5 0
1.125 0.5 0
1 0.625 0
1.125 0.625 0
1.125 0.5 0
1.25 0.5 0
1.125 0.625 0
1.25 0.625 0
1.125 0.625 0
1.25 0.625 0
1.125 0.75 0
1.25 0.75 0
1 0.625 0
1.125 0.625 0
1 0.75 0
1.125 0.75 0
1.25 0.5 0
1.375 0.5 0
1.25 0.625 0
1.375 0.625 0
1.375 0.5 0
1.5 0.5 0
1.375 0.625 0
1.5 0.625 0
1.375 0.625 0
1.5 0.625 0
1.375 0.75 0
1.5 0.75 0
1.25 0.625 0
1.375 0.625 0
1.25 0.75 0
1.375 0.75 0
1.25 0.75 0
1.375 0.75 0
1.25 0.875 0
1.375 0.875 0
1.375 0.75 0
1.5 0.75 0
1.375 0.875 0
1.5 0.875 0
1.375 0.875 0
1.5 0.875 0
1.375 1 0
1.5 1 0
1.25 0.875 0
1.375 0.875 0
1.25 1 0
1.375 1 0
1 0.75 0
1.125 0.75 0
1 0.875 0
1.125 0.875 0
1.125 0.75 0
1.25 0.75 0
1.125 0.875 0
1.25 0.875 0
1.125 0.875 0
1.25 0.875 0
1.125 1 0
1.25 1 0
1 0.875 0
1.125 0.875 0
1 1 0
1.125 1 0
2 0 0
2.125 0 0
2 0.125 0
2.125 0.125 0
2.125 0 0
2.25 0 0
2.125 0.125 0
2.25 0.125 0
2.125 0.125 0
2.25 0.125 0
2.125 0.25 0
2.25 0.25 0
2 0.125 0
2.125 0.125 0
2 0.25 0
2.125 0.25 0
2.25 0 0
2.375 0 0
2.25 0.125 0
2.375 0.125 0
2.375 0 0
2.5 0 0
2.375 0.125 0
2.5 0.125 0
2.375 0.125 0
2.5 0.125 0
2.375 0.25 0
2.5 0.25 0
2.25 0.125 0
2.375 0.125 0
2.25 0.25 0
2.375 0.25 0
2.25 0.25 0
2.375 0.25 0
2.25 0.375 0
2.375 0.375 0
2.375 0.25 0
2.5 0.25 0
2.375 0.375 0
2.5 0.375 0
2.375 0.375 0
2.5 0.375 0
2.375 0.5 0
2.5 0.5 0
2.25 0.375 0
2.375 0.375 0
2.25 0.5 0
2.375 0.5 0
2 0.25 0
2.125 0.25 0
2 0.375 0
2.125 0.375 0
2.125 0.25 0
2.25 0.25 0
2.125 0.375 0
2.25 0.375 0
2.125 0.375 0
2.25 0.375 0
2.125 0.5 0
2.25 0.5 0
2 0.375 0
2.125 0.375 0
2 0.5 0
2.125 0.5 0
2.5 0 0
2.625 0 0
2.5 0.125 0
2.625 0.125 0
2.625 0 0
2.75 0 0
2.625 0.125 0
2.75 0.125 0
2.625 0.125 0
2.75 0.125 0
2.625 0.25 0
2.75 0.25 0
2.5 0.125 0
2.625 0.125 0
2.5 0.25 0
2.625 0.25 0
2.75 0 0
2.875 0 0
2.75 0.125 0
2.875 0.125 0
2.875 0 0
3 0 0
2.875 0.125 0
3 0.125 0
2.875 0.125 0
3 0.125 0
2.875 0.25 0
3 0.25 0
2.75 0.125 0
2.875 0.125 0
2.75 0.25 0
2.875 0.25 0
2.75 0.25 0
2.875 0.25 0
2.75 0.375 0
2.875 0.375 0
2.875 0.25 0
3 0.25 0
2.875 0.375 0
3 0.375 0
2.875 0.375 0
3 0.375 0
2.875 0.5 0
3 0.5 0
2.75 0.375 0
2.875 0.375 0
2.75 0.5 0
2.875 0.5 0
2.5 0.25 0
2.625 0.25 0
2.5 0.375 0
2.625 0.375 0
2.625 0.25 0
2.75 0.25 0
2.625 0.375 0
2.75 0.375 0
2.625 0.375 0
2.75 0.375 0
2.625 0.5 0
2.75 0.5 0
2.5 0.375 0
2.625 0.375 0
2.5 0.5 0
2.625 0.5 0
2.5 0.5 0
2.625 0.5 0
2.5 0.625 0
2.625 0.625 0
2.625 0.5 0
2.75 0.5 0
2.625 0.625 0
2.75 0.625 0
2.625 0.625 0
2.75 0.625 0
2.625 0.75 0
2.75 0.75 0
2.5 0.625 0
2.625 0.625 0
2.5 0.75 0
2.625 0.75 0
2.75 0.5 0
2.875 0.5 0
2.75 0.625 0
2.875 0.625 0
2.875 0.5 0
3 0.5 0
2.875 0.625 0
3 0.625 0
2.875 0.625 0
3 0.625 0
2.875 0.75 0
3 0.75 0
2.75 0.625 0
2.875 0.625 0
2.75 0.75 0
2.875 0.75 0
2.75 0.75 0
2.875 0.75 0
2.75 0.875 0
2.875 0.875 0
2.875 0.75 0
3 0.75 0
2.875 0.875 0
3 0.875 0
2.875 0.875 0
3 0.875 0
2.875 1 0
3 1 0
2.75 0.875 0
2.875 0.875 0
2.75 1 0
2.875 1 0
2.5 0.75 0
2.625 0.75 0
2.5 0.875 0
2.625 0.875 0
2.625 0.75 0
2.75 0.75 0
2.625 0.875 0
2.75 0.875 0
2.625 0.875 0
2.75 0.875 0
2.625 1 0
2.75 1 0
2.5 0.875 0
2.625 0.875 0
2.5 1 0
2.625 1 0
2 0.5 0
2.125 0.5 0
2 0.625 0
2.125 0.625 0
2.125 0.5 0
2.25 0.5 0
2.125 0.625 0
2.25 0.625 0
2.125 0.625 0
2.25 0.625 0
2.125 0.75 0
2.25 0.75 0
2 0.625 0
2.125 0.625 0
2 0.75 0
2.125 0.75 0
2.25 0.5 0
2.375 0.5 0
2.25 0.625 0
2.375 0.625 0
2.375 0.5 0
2.5 0.5 0
2.375 0.625 0
2.5 0.625 0
2.375 0.625 0
2.5 0.625 0
2.375 0.75 0
2.5 0.75 0
2.25 0.625 0
2.375 0.625 0
2.25 0.75 0
2.375 0.75 0
2.25 0.75 0
2.375 0.75 0
2.25 0.875 0
2.375 0.875 0
2.375 0.75 0
2.5 0.75 0
2.375 0.875 0
2.5 0.875 0
2.375 0.875 0
2.5 0.875 0
2.375 1 0
2.5 1 0
2.25 0.875 0
2.375 0.875 0
2.25 1 0
2.375 1 0
2 0.75 0
2.125 0.75 0
2 0.875 0
2.125 0.875 0
2.125 0.75 0
2.25 0.75 0
2.125 0.875 0
2.25 0.875 0
2.125 0.875 0
2.25 0.875 0
2.125 1 0
2.25 1 0
2 0.875 0
2.125 0.875 0
2 1 0
2.125 1 0
3 0 0
3.125 0 0
3 0.125 0
3.125 0.125 0
3.125 0 0
3.25 0 0
3.125 0.125 0
3.25 0.125 0
3.125 0.125 0
3.25 0.125 0
3.125 0.25 0
3.25 0.25 0
3 0.125 0
3.125 0.125 0
3 0.25 0
3.125 0.25 0
3.25 0 0
3.375 0 0
3.25 0.125 0
3.375 0.125 0
3.375 0 0
3.5 0 0
3.375 0.125 0
3.5 0.125 0
3.375 0.125 0
3.5 0.125 0
3.375 0.25 0
3.5 0.25 0
3.25 0.125 0
3.375 0.125 0
3.25 0.25 0
3.375 0.25 0
3.25 0.25 0
3.375 0.25 0
3.25 0.375 0
3.375 0.375 0
3.375 0.25 0
3.5 0.25 0
3.375 0.375 0
3.5 0.375 0
3.375 0.375 0
3.5 0.375 0
3.375 0.5 0
3.5 0.5 0
3.25 0.375 0
3.375 0.375 0
3.25 0.5 0
[...]
<CellData Scalars="attribute">
<DataArray type="Int32" Name="attribute" format="ascii">
1
1
1
1
1
1
1
1
1
1
1
1
1
1
1
1
1
1
1
1
1
1
1
1
1
1
1
1
1
1
1
1
1
1
1
1
1
1
1
1
1
1
1
1
1
1
1
1
1
1
1
1
1
1
1
1
1
1
1
1
1
1
1
1
1
1
1
1
1
1
1
1
1
1
1
1
1
1
1
1
1
1
1
1
1
1
1
1
1
1
1
1
1
1
1
1
1
1
1
1
1
1
1
1
1
1
1
1
1
1
1
1
1
1
1
1
1
1
1
1
1
1
1
1
1
1
1
1
1
1
1
1
1
1
1
1
1
1
1
1
1
1
1
1
1
1
1
1
1
1
1
1
1
1
1
1
1
1
1
1
1
1
1
1
1
1
1
1
1
1
1
1
1
1
1
1
1
1
1
1
1
1
1
1
1
1
1
1
1
1
1
1
1
1
1
1
1
1
1
1
1
1
1
1
1
1
1
1
1
1
1
1
1
1
1
1
1
1
1
1
1
1
1
1
1
1
1
1
1
1
1
1
1
1
1
1
1
1
1
1
1
1
1
1
1
1
1
1
1
1
1
1
1
1
1
1
2
2
2
2
2
2
2
2
2
2
2
2
2
2
2
2
2
2
2
2
2
2
2
2
2
2
2
2
2
2
2
2
2
2
2
2
2
2
2
2
2
2
2
2
2
2
2
2
2
2
2
2
2
2
2
2
2
2
2
2
2
2
2
2
2
2
2
2
2
2
2
2
2
2
2
2
2
2
2
2
2
2
2
2
2
2
2
2
2
2
2
2
2
2
2
2
2
2
2
2
2
2
2
2
2
2
2
2
2
2
2
2
2
2
2
2
2
2
2
2
2
2
2
2
2
2
2
2
2
2
2
2
2
2
2
2
2
2
2
2
2
2
2
2
2
2
2
2
2
2
2
2
2
2
2
2
2
2
2
2
2
2
2
2
2
2
2
2
2
2
2
2
2
2
2
2
2
2
2
2
2
2
2
2
2
2
2
2
2
2
2
2
2
2
2
2
2
2
2
2
2
2
2
2
2
2
2
2
2
2
2
2
2
2
2
2
2
2
2
2
2
2
2
2
2
2
2
2
2
2
2
2
2
2
2
2
2
2
2
2
2
2
2
2
2
2
2
2
2
2
2
2
2
2
2
2
</DataArray>
</CellData>
<PointData >
<DataArray type="Float64" Name="Pressure" NumberOfComponents="1" format="ascii" >
-0.000295342
-3.32081e-07
-0.000483297
-5.49715e-07
-3.32081e-07
1.53549e-11
-5.49715e-07
2.65907e-11
-5.49715e-07
2.65907e-11
-3.69049e-07
1.80571e-11
-0.000483297
-5.49715e-07
-0.000322202
-3.69049e-07
1.53549e-11
-4.53263e-16
2.65907e-11
-8.09272e-16
-4.53263e-16
1.36178e-20
-8.09272e-16
2.52077e-20
-8.09272e-16
2.52077e-20
-5.63487e-16
1.80274e-20
2.65907e-11
-8.09272e-16
1.80571e-11
-5.63487e-16
1.80571e-11
-5.63487e-16
9.2536e-12
-2.87935e-16
-5.63487e-16
1.80274e-20
-2.87935e-16
9.22151e-21
-2.87935e-16
9.22151e-21
-9.53074e-18
2.92517e-22
9.2536e-12
-2.87935e-16
3.26211e-13
-9.53074e-18
-0.000322202
-3.69049e-07
-0.000161104
-1.87401e-07
-3.69049e-07
1.80571e-11
-1.87401e-07
9.2536e-12
-1.87401e-07
9.2536e-12
-4.15051e-09
3.26211e-13
-0.000161104
-1.87401e-07
-5.10724e-09
-4.15051e-09
1.36178e-20
-2.12577e-25
2.52077e-20
-4.07824e-25
-2.12577e-25
5.76037e-30
-4.07824e-25
1.11122e-29
-4.07824e-25
1.11122e-29
-3.02121e-25
8.34982e-30
2.52077e-20
-4.07824e-25
1.80274e-20
-3.02121e-25
5.76037e-30
-3.80886e-35
1.11122e-29
-8.1017e-35
-3.80886e-35
1.5845e-39
-8.1017e-35
3.10235e-39
-8.1017e-35
3.10235e-39
-6.55062e-35
2.40239e-39
1.11122e-29
-8.1017e-35
8.34982e-30
-6.55062e-35
8.34982e-30
-6.55062e-35
4.34094e-30
-3.45398e-35
-6.55062e-35
2.40239e-39
-3.45398e-35
1.2758e-39
-3.45398e-35
1.2758e-39
-9.95703e-37
3.2483e-41
4.34094e-30
-3.45398e-35
1.24504e-31
-9.95703e-37
1.80274e-20
-3.02121e-25
9.22151e-21
-1.55493e-25
-3.02121e-25
8.34982e-30
-1.55493e-25
4.34094e-30
-1.55493e-25
4.34094e-30
-4.74873e-27
1.24504e-31
9.22151e-21
-1.55493e-25
2.92517e-22
-4.74873e-27
2.92517e-22
-4.74873e-27
-8.761e-21
1.48091e-25
-4.74873e-27
1.24504e-31
1.48091e-25
-4.15099e-30
1.48091e-25
-4.15099e-30
3.01038e-25
-8.32774e-30
-8.761e-21
1.48091e-25
-1.79427e-20
3.01038e-25
1.24504e-31
-9.95703e-37
-4.15099e-30
3.30312e-35
-9.95703e-37
3.2483e-41
3.30312e-35
-1.22764e-39
3.30312e-35
-1.22764e-39
6.53294e-35
-2.3985e-39
-4.15099e-30
3.30312e-35
-8.32774e-30
6.53294e-35
-8.32774e-30
6.53294e-35
-1.12896e-29
8.22511e-35
6.53294e-35
-2.3985e-39
8.22511e-35
-3.14576e-39
8.22511e-35
-3.14576e-39
3.89199e-35
-1.61517e-39
-1.12896e-29
8.22511e-35
-5.89001e-30
3.89199e-35
-1.79427e-20
3.01038e-25
-2.5657e-20
4.14766e-25
3.01038e-25
-8.32774e-30
4.14766e-25
-1.12896e-29
4.14766e-25
-1.12896e-29
2.17736e-25
-5.89001e-30
-2.5657e-20
4.14766e-25
-1.39759e-20
2.17736e-25
-5.10724e-09
-4.15051e-09
0.000161096
1.80702e-07
-4.15051e-09
3.26211e-13
1.80702e-07
-8.72829e-12
1.80702e-07
-8.72829e-12
3.67158e-07
-1.79128e-11
0.000161096
1.80702e-07
0.000322199
3.67158e-07
3.26211e-13
-9.53074e-18
-8.72829e-12
2.72741e-16
-9.53074e-18
2.92517e-22
2.72741e-16
-8.761e-21
2.72741e-16
-8.761e-21
5.59953e-16
-1.79427e-20
-8.72829e-12
2.72741e-16
-1.79128e-11
5.59953e-16
-1.79128e-11
5.59953e-16
-2.70827e-11
8.24331e-16
5.59953e-16
-1.79427e-20
8.24331e-16
-2.5657e-20
8.24331e-16
-2.5657e-20
4.66082e-16
-1.39759e-20
-2.70827e-11
8.24331e-16
-1.58587e-11
4.66082e-16
0.000322199
3.67158e-07
0.000483305
5.55901e-07
3.67158e-07
-1.79128e-11
5.55901e-07
-2.70827e-11
5.55901e-07
-2.70827e-11
3.38634e-07
-1.58587e-11
0.000483305
5.55901e-07
0.00029535
3.38634e-07
1.5845e-39
1.77902e-45
3.10235e-39
6.52989e-46
1.77902e-45
3.4099e-49
6.52989e-46
6.61692e-49
6.52989e-46
6.61692e-49
-1.14345e-45
5.16404e-49
3.10235e-39
6.52989e-46
2.40239e-39
-1.14345e-45
3.4099e-49
2.35261e-54
6.61692e-49
3.98149e-54
2.35261e-54
6.12496e-59
3.98149e-54
1.16717e-58
3.98149e-54
1.16717e-58
2.74808e-54
9.0596e-59
6.61692e-49
3.98149e-54
5.16404e-49
2.74808e-54
5.16404e-49
2.74808e-54
2.78314e-49
1.43241e-54
2.74808e-54
9.0596e-59
1.43241e-54
4.91222e-59
1.43241e-54
4.91222e-59
2.40828e-56
9.3438e-61
2.78314e-49
1.43241e-54
6.16588e-51
2.40828e-56
2.40239e-39
-1.14345e-45
1.2758e-39
-7.77525e-46
-1.14345e-45
5.16404e-49
-7.77525e-46
2.78314e-49
-7.77525e-46
2.78314e-49
-4.40129e-47
6.16588e-51
1.2758e-39
-7.77525e-46
3.2483e-41
-4.40129e-47
6.12496e-59
5.91543e-64
1.16717e-58
1.06038e-63
5.91543e-64
9.0156e-69
1.06038e-63
1.69332e-68
1.06038e-63
1.69332e-68
7.79057e-64
1.30533e-68
1.16717e-58
1.06038e-63
9.0596e-59
7.79057e-64
9.0156e-69
9.12366e-74
1.69332e-68
1.66589e-73
9.12366e-74
1.05833e-78
1.66589e-73
1.97144e-78
1.66589e-73
1.97144e-78
1.25141e-73
1.51391e-78
1.69332e-68
1.66589e-73
1.30533e-68
1.25141e-73
1.30533e-68
1.25141e-73
7.08736e-69
6.72798e-74
1.25141e-73
1.51391e-78
6.72798e-74
8.22164e-79
6.72798e-74
8.22164e-79
9.67638e-76
1.1517e-80
7.08736e-69
6.72798e-74
1.15457e-70
9.67638e-76
9.0596e-59
7.79057e-64
4.91222e-59
4.1482e-64
7.79057e-64
1.30533e-68
4.1482e-64
7.08736e-69
4.1482e-64
7.08736e-69
6.66556e-66
1.15457e-70
4.91222e-59
4.1482e-64
9.3438e-61
6.66556e-66
9.3438e-61
6.66556e-66
-4.77773e-59
-4.05388e-64
6.66556e-66
1.15457e-70
-4.05388e-64
-6.92235e-69
-4.05388e-64
-6.92235e-69
-7.79311e-64
-1.30487e-68
-4.77773e-59
-4.05388e-64
-9.05389e-59
-7.79311e-64
1.15457e-70
9.67638e-76
-6.92235e-69
-6.59113e-74
9.67638e-76
1.1517e-80
-6.59113e-74
-8.05777e-79
-6.59113e-74
-8.05777e-79
-1.2516e-73
-1.51364e-78
-6.92235e-69
-6.59113e-74
-1.30487e-68
-1.2516e-73
-1.30487e-68
-1.2516e-73
-1.7089e-68
-1.68031e-73
-1.2516e-73
-1.51364e-78
-1.68031e-73
-1.98727e-78
-1.68031e-73
-1.98727e-78
-9.22646e-74
-1.06956e-78
-1.7089e-68
-1.68031e-73
-9.12597e-69
-9.22646e-74
-9.05389e-59
-7.79311e-64
-1.1795e-58
-1.0709e-63
-7.79311e-64
-1.30487e-68
-1.0709e-63
-1.7089e-68
-1.0709e-63
-1.7089e-68
-5.99131e-64
-9.12597e-69
-1.1795e-58
-1.0709e-63
-6.21196e-59
-5.99131e-64
3.2483e-41
-4.40129e-47
-1.22764e-39
7.08652e-46
-4.40129e-47
6.16588e-51
7.08652e-46
-2.69339e-49
7.08652e-46
-2.69339e-49
1.12147e-45
-5.15869e-49
-1.22764e-39
7.08652e-46
-2.3985e-39
1.12147e-45
6.16588e-51
2.40828e-56
-2.69339e-49
-1.3985e-54
2.40828e-56
9.3438e-61
-1.3985e-54
-4.77773e-59
-1.3985e-54
-4.77773e-59
-2.75062e-54
-9.05389e-59
-2.69339e-49
-1.3985e-54
-5.15869e-49
-2.75062e-54
-5.15869e-49
-2.75062e-54
-6.69738e-49
-4.02642e-54
-2.75062e-54
-9.05389e-59
-4.02642e-54
-1.1795e-58
-4.02642e-54
-1.1795e-58
-2.38634e-54
-6.21196e-59
-6.69738e-49
-4.02642e-54
-3.46642e-49
-2.38634e-54
-2.3985e-39
1.12147e-45
-3.14576e-39
-6.56621e-46
1.12147e-45
-5.15869e-49
-6.56621e-46
-6.69738e-49
-6.56621e-46
-6.69738e-49
-1.79664e-45
-3.46642e-49
-3.14576e-39
-6.56621e-46
-1.61517e-39
-1.79664e-45
1.05833e-78
1.01167e-83
1.97144e-78
1.86084e-83
1.01167e-83
9.83347e-89
1.86084e-83
1.82427e-88
1.86084e-83
1.82427e-88
1.41269e-83
1.39922e-88
1.97144e-78
1.86084e-83
1.51391e-78
1.41269e-83
9.83347e-89
8.57414e-94
1.82427e-88
1.58185e-93
8.57414e-94
7.27839e-99
1.58185e-93
1.3476e-98
1.58185e-93
1.3476e-98
1.20758e-93
1.03376e-98
1.82427e-88
1.58185e-93
1.39922e-88
1.20758e-93
1.39922e-88
1.20758e-93
7.60049e-89
6.5453e-94
1.20758e-93
1.03376e-98
6.5453e-94
5.61706e-99
6.5453e-94
5.61706e-99
7.27873e-96
5.90166e-101
7.60049e-89
6.5453e-94
9.20223e-91
7.27873e-96
1.51391e-78
1.41269e-83
8.22164e-79
7.63496e-84
1.41269e-83
1.39922e-88
7.63496e-84
7.60049e-89
7.63496e-84
7.60049e-89
9.68266e-86
9.20223e-91
8.22164e-79
7.63496e-84
1.1517e-80
9.68266e-86
7.27839e-99
5.73896e-104
1.3476e-98
1.05999e-103
5.73896e-104
4.34185e-109
1.05999e-103
8.03081e-109
1.05999e-103
8.03081e-109
8.11712e-104
6.16436e-109
1.3476e-98
1.05999e-103
1.03376e-98
8.11712e-104
4.34185e-109
3.09839e-114
8.03081e-109
5.72451e-114
3.09839e-114
2.11349e-119
5.72451e-114
3.90681e-119
5.72451e-114
3.90681e-119
4.39184e-114
3.00094e-119
8.03081e-109
5.72451e-114
6.16436e-109
4.39184e-114
6.16436e-109
4.39184e-114
3.35048e-109
2.38625e-114
4.39184e-114
3.00094e-119
2.38625e-114
1.63143e-119
2.38625e-114
1.63143e-119
2.02901e-116
1.30011e-121
3.35048e-109
2.38625e-114
3.06311e-111
2.02901e-116
1.03376e-98
8.11712e-104
5.61706e-99
4.40661e-104
8.11712e-104
6.16436e-109
4.40661e-104
3.35048e-109
4.40661e-104
3.35048e-109
4.28697e-106
3.06311e-111
5.61706e-99
4.40661e-104
5.90166e-101
4.28697e-106
5.90166e-101
4.28697e-106
-5.53345e-99
-4.34599e-104
4.28697e-106
3.06311e-111
-4.34599e-104
-3.30711e-109
-4.34599e-104
-3.30711e-109
-8.11723e-104
-6.1642e-109
-5.53345e-99
-4.34599e-104
-1.03371e-98
-8.11723e-104
3.06311e-111
2.02901e-116
-3.30711e-109
-2.35755e-114
2.02901e-116
1.30011e-121
-2.35755e-114
-1.61303e-119
-2.35755e-114
-1.61303e-119
-4.39183e-114
-3.00087e-119
-3.30711e-109
-2.35755e-114
-6.1642e-109
-4.39183e-114
-6.1642e-109
-4.39183e-114
-8.07371e-109
-5.75312e-114
-4.39183e-114
-3.00087e-119
-5.75312e-114
-3.92502e-119
-5.75312e-114
-3.92502e-119
-3.11864e-114
-2.12639e-119
-8.07371e-109
-5.75312e-114
-4.37225e-109
-3.11864e-114
-1.03371e-98
-8.11723e-104
-1.35585e-98
-1.06606e-103
-8.11723e-104
-6.1642e-109
-1.06606e-103
-8.07371e-109
-1.06606e-103
-8.07371e-109
-5.78198e-104
-4.37225e-109
-1.35585e-98
-1.06606e-103
-7.33687e-99
-5.78198e-104
1.1517e-80
9.68266e-86
-8.05777e-79
-7.49806e-84
9.68266e-86
9.20223e-91
-7.49806e-84
-7.46991e-89
-7.49806e-84
-7.46991e-89
-1.4128e-83
-1.3991e-88
-8.05777e-79
-7.49806e-84
-1.51364e-78
-1.4128e-83
9.20223e-91
7.27873e-96
-7.46991e-89
-6.4424e-94
7.27873e-96
5.90166e-101
-6.4424e-94
-5.53345e-99
-6.4424e-94
-5.53345e-99
-1.20762e-93
-1.03371e-98
-7.46991e-89
-6.4424e-94
-1.3991e-88
-1.20762e-93
-1.3991e-88
-1.20762e-93
-1.83707e-88
-1.59225e-93
-1.20762e-93
-1.03371e-98
-1.59225e-93
-1.35585e-98
-1.59225e-93
-1.35585e-98
-8.64784e-94
-7.33687e-99
-1.83707e-88
-1.59225e-93
-9.92419e-89
-8.64784e-94
-1.51364e-78
-1.4128e-83
-1.98727e-78
-1.87488e-83
-1.4128e-83
-1.3991e-88
-1.87488e-83
-1.83707e-88
-1.87488e-83
-1.83707e-88
-1.02163e-83
-9.92419e-89
-1.98727e-78
-1.87488e-83
-1.06956e-78
-1.02163e-83
2.11349e-119
1.37014e-124
3.90681e-119
2.53133e-124
1.37014e-124
8.49111e-130
2.53133e-124
1.56891e-129
2.53133e-124
1.56891e-129
1.94432e-124
1.20589e-129
3.90681e-119
2.53133e-124
3.00094e-119
1.94432e-124
8.49111e-130
5.02258e-135
1.56891e-129
9.27738e-135
5.02258e-135
2.84376e-140
9.27738e-135
5.25261e-140
9.27738e-135
5.25261e-140
7.13158e-135
4.03931e-140
1.56891e-129
9.27738e-135
1.20589e-129
7.13158e-135
1.20589e-129
7.13158e-135
6.55645e-130
3.87724e-135
7.13158e-135
4.03931e-140
3.87724e-135
2.19627e-140
3.87724e-135
2.19627e-140
2.51755e-137
1.33415e-142
6.55645e-130
3.87724e-135
4.55988e-132
2.51755e-137
3.00094e-119
1.94432e-124
1.63143e-119
1.05687e-124
1.94432e-124
1.20589e-129
1.05687e-124
6.55645e-130
1.05687e-124
6.55645e-130
7.85254e-127
4.55988e-132
1.63143e-119
1.05687e-124
1.30011e-121
7.85254e-127
2.84376e-140
1.54116e-145
5.25261e-140
2.84602e-145
1.54116e-145
8.00744e-151
2.84602e-145
1.47857e-150
2.84602e-145
1.47857e-150
2.18896e-145
1.1375e-150
5.25261e-140
2.84602e-145
4.03931e-140
2.18896e-145
8.00744e-151
3.99051e-156
1.47857e-150
7.36724e-156
3.99051e-156
1.90945e-161
7.36724e-156
3.52481e-161
7.36724e-156
3.52481e-161
5.66862e-156
2.71259e-161
1.47857e-150
7.36724e-156
1.1375e-150
5.66862e-156
1.1375e-150
5.66862e-156
6.1847e-151
3.08195e-156
5.66862e-156
2.71259e-161
3.08195e-156
1.47477e-161
3.08195e-156
1.47477e-161
1.5297e-158
6.84716e-164
6.1847e-151
3.08195e-156
3.28361e-153
1.5297e-158
4.03931e-140
2.18896e-145
2.19627e-140
1.19014e-145
2.18896e-145
1.1375e-150
1.19014e-145
6.1847e-151
1.19014e-145
6.1847e-151
6.7552e-148
3.28361e-153
2.19627e-140
1.19014e-145
1.33415e-142
6.7552e-148
1.33415e-142
6.7552e-148
-2.17737e-140
-1.18057e-145
6.7552e-148
3.28361e-153
-1.18057e-145
-6.13818e-151
-1.18057e-145
-6.13818e-151
-2.18891e-145
-1.13747e-150
-2.17737e-140
-1.18057e-145
-4.03921e-140
-2.18891e-145
3.28361e-153
1.5297e-158
-6.13818e-151
-3.06027e-156
1.5297e-158
6.84716e-164
-3.06027e-156
-1.46506e-161
-3.06027e-156
-1.46506e-161
-5.66845e-156
-2.71251e-161
-6.13818e-151
-3.06027e-156
-1.13747e-150
-5.66845e-156
-1.13747e-150
-5.66845e-156
-1.48314e-150
-7.3885e-156
-5.66845e-156
-2.71251e-161
-7.3885e-156
-3.5343e-161
-7.3885e-156
-3.5343e-161
-4.00556e-156
-1.91618e-161
-1.48314e-150
-7.3885e-156
-8.0398e-151
-4.00556e-156
-4.03921e-140
-2.18891e-145
-5.27123e-140
-2.85545e-145
-2.18891e-145
-1.13747e-150
-2.85545e-145
-1.48314e-150
-2.85545e-145
-1.48314e-150
-1.54784e-145
-8.0398e-151
-5.27123e-140
-2.85545e-145
-2.85695e-140
-1.54784e-145
1.30011e-121
7.85254e-127
-1.61303e-119
-1.04576e-124
7.85254e-127
4.55988e-132
-1.04576e-124
-6.4919e-130
-1.04576e-124
-6.4919e-130
-1.94429e-124
-1.20586e-129
-1.61303e-119
-1.04576e-124
-3.00087e-119
-1.94429e-124
4.55988e-132
2.51755e-137
-6.4919e-130
-3.8416e-135
2.51755e-137
1.33415e-142
-3.8416e-135
-2.17737e-140
-3.8416e-135
-2.17737e-140
-7.13144e-135
-4.03921e-140
-6.4919e-130
-3.8416e-135
-1.20586e-129
-7.13144e-135
-1.20586e-129
-7.13144e-135
-1.57529e-129
-9.31262e-135
-7.13144e-135
-4.03921e-140
-9.31262e-135
-5.27123e-140
-9.31262e-135
-5.27123e-140
-5.04753e-135
-2.85695e-140
-1.57529e-129
-9.31262e-135
-8.53628e-130
-5.04753e-135
-3.00087e-119
-1.94429e-124
-3.92502e-119
-2.54235e-124
-1.94429e-124
-1.20586e-129
-2.54235e-124
-1.57529e-129
-2.54235e-124
-1.57529e-129
-1.37795e-124
-8.53628e-130
-3.92502e-119
-2.54235e-124
-2.12639e-119
-1.37795e-124
1.90945e-161
8.77774e-167
3.52481e-161
1.62013e-166
8.77774e-167
3.87955e-172
1.62013e-166
7.15975e-172
1.62013e-166
7.15975e-172
1.24696e-166
5.51133e-172
3.52481e-161
1.62013e-166
2.71259e-161
1.24696e-166
3.87955e-172
1.64945e-177
7.15975e-172
3.04371e-177
1.64945e-177
6.75012e-183
3.04371e-177
1.24546e-182
3.04371e-177
1.24546e-182
2.34318e-177
9.58898e-183
7.15975e-172
3.04371e-177
5.51133e-172
2.34318e-177
5.51133e-172
2.34318e-177
2.99611e-172
1.27375e-177
2.34318e-177
9.58898e-183
1.27375e-177
5.21233e-183
1.27375e-177
5.21233e-183
4.84049e-180
1.85346e-185
2.99611e-172
1.27375e-177
1.21708e-174
4.84049e-180
2.71259e-161
1.24696e-166
1.47477e-161
6.77908e-167
1.24696e-166
5.51133e-172
6.77908e-167
2.99611e-172
6.77908e-167
2.99611e-172
2.94352e-169
1.21708e-174
1.47477e-161
6.77908e-167
6.84716e-164
2.94352e-169
6.75012e-183
2.6601e-188
1.24546e-182
4.9076e-188
2.6601e-188
1.00994e-193
4.9076e-188
1.86305e-193
4.9076e-188
1.86305e-193
3.77875e-188
1.43462e-193
1.24546e-182
4.9076e-188
9.58898e-183
3.77875e-188
1.00994e-193
3.69547e-199
1.86305e-193
6.81641e-199
3.69547e-199
1.30366e-204
6.81641e-199
2.40442e-204
6.81641e-199
2.40442e-204
5.24924e-199
1.85173e-204
1.86305e-193
6.81641e-199
1.43462e-193
5.24924e-199
1.43462e-193
5.24924e-199
7.79744e-194
2.85292e-199
5.24924e-199
1.85173e-204
2.85292e-199
1.00635e-204
2.85292e-199
1.00635e-204
8.31674e-202
2.74651e-207
7.79744e-194
2.85292e-199
2.42841e-196
8.31674e-202
9.58898e-183
3.77875e-188
5.21233e-183
2.05393e-188
3.77875e-188
1.43462e-193
2.05393e-188
7.79744e-194
2.05393e-188
7.79744e-194
6.83448e-191
2.42841e-196
5.21233e-183
2.05393e-188
1.85346e-185
6.83448e-191
1.85346e-185
6.83448e-191
-5.18601e-183
-2.04422e-188
6.83448e-191
2.42841e-196
-2.04422e-188
-7.76293e-194
-2.04422e-188
-7.76293e-194
-3.7786e-188
-1.43456e-193
-5.18601e-183
-2.04422e-188
-9.5886e-183
-3.7786e-188
2.42841e-196
8.31674e-202
-7.76293e-194
-2.8411e-199
8.31674e-202
2.74651e-207
-2.8411e-199
-1.00245e-204
-2.8411e-199
-1.00245e-204
-5.24901e-199
-1.85165e-204
-7.76293e-194
-2.8411e-199
-1.43456e-193
-5.24901e-199
-1.43456e-193
-5.24901e-199
-1.86637e-193
-6.82775e-199
-5.24901e-199
-1.85165e-204
-6.82775e-199
-2.40816e-204
-6.82775e-199
-2.40816e-204
-3.7035e-199
-1.3063e-204
-1.86637e-193
-6.82775e-199
-1.0123e-193
-3.7035e-199
-9.5886e-183
-3.7786e-188
-1.248e-182
-4.91697e-188
-3.7786e-188
-1.43456e-193
-4.91697e-188
-1.86637e-193
-4.91697e-188
-1.86637e-193
-2.66674e-188
-1.0123e-193
-1.248e-182
-4.91697e-188
-6.76816e-183
-2.66674e-188
6.84716e-164
2.94352e-169
-1.46506e-161
-6.73733e-167
2.94352e-169
1.21708e-174
-6.73733e-167
-2.97884e-172
-6.73733e-167
-2.97884e-172
-1.24692e-166
-5.51113e-172
-1.46506e-161
-6.73733e-167
-2.71251e-161
-1.24692e-166
1.21708e-174
4.84049e-180
-2.97884e-172
-1.26688e-177
4.84049e-180
1.85346e-185
-1.26688e-177
-5.18601e-183
-1.26688e-177
-5.18601e-183
-2.34309e-177
-9.5886e-183
-2.97884e-172
-1.26688e-177
-5.51113e-172
-2.34309e-177
-5.51113e-172
-2.34309e-177
-7.17656e-172
-3.05039e-177
-2.34309e-177
-9.5886e-183
-3.05039e-177
-1.248e-182
-3.05039e-177
-1.248e-182
-1.65418e-177
-6.76816e-183
-7.17656e-172
-3.05039e-177
-3.89145e-172
-1.65418e-177
-2.71251e-161
-1.24692e-166
-3.5343e-161
-1.6242e-166
-1.24692e-166
-5.51113e-172
-1.6242e-166
-7.17656e-172
-1.6242e-166
-7.17656e-172
-8.8066e-167
-3.89145e-172
-3.5343e-161
-1.6242e-166
-1.91618e-161
-8.8066e-167
1.30366e-204
4.43506e-210
2.40442e-204
8.17917e-210
4.43506e-210
1.45538e-215
8.17917e-210
2.68381e-215
8.17917e-210
2.68381e-215
6.29941e-210
2.06711e-215
2.40442e-204
8.17917e-210
1.85173e-204
6.29941e-210
1.45538e-215
4.60759e-221
2.68381e-215
8.49603e-221
4.60759e-221
1.40748e-226
8.49603e-221
2.5951e-226
8.49603e-221
2.5951e-226
6.54406e-221
1.99896e-226
2.68381e-215
8.49603e-221
2.06711e-215
6.54406e-221
2.06711e-215
6.54406e-221
1.1233e-215
3.55598e-221
6.54406e-221
1.99896e-226
3.55598e-221
1.08617e-226
3.55598e-221
1.08617e-226
7.97046e-224
2.28071e-229
1.1233e-215
3.55598e-221
2.68814e-218
7.97046e-224
1.85173e-204
6.29941e-210
1.00635e-204
3.42335e-210
6.29941e-210
2.06711e-215
3.42335e-210
1.1233e-215
3.42335e-210
1.1233e-215
8.74796e-213
2.68814e-218
1.00635e-204
3.42335e-210
2.74651e-207
8.74796e-213
1.40748e-226
4.14872e-232
2.5951e-226
7.64886e-232
4.14872e-232
1.18002e-237
7.64886e-232
2.17543e-237
7.64886e-232
2.17543e-237
5.89199e-232
1.67581e-237
2.5951e-226
7.64886e-232
1.99896e-226
5.89199e-232
1.18002e-237
3.23853e-243
2.17543e-237
5.97004e-243
3.23853e-243
8.57493e-249
5.97004e-243
1.58065e-248
5.97004e-243
1.58065e-248
4.59907e-243
1.2177e-248
2.17543e-237
5.97004e-243
1.67581e-237
4.59907e-243
1.67581e-237
4.59907e-243
9.1051e-238
2.4987e-243
4.59907e-243
1.2177e-248
2.4987e-243
6.61561e-249
2.4987e-243
6.61561e-249
4.31851e-246
1.07199e-251
9.1051e-238
2.4987e-243
1.6788e-240
4.31851e-246
1.99896e-226
5.89199e-232
1.08617e-226
3.20138e-232
5.89199e-232
1.67581e-237
3.20138e-232
9.1051e-238
3.20138e-232
9.1051e-238
6.29851e-235
1.6788e-240
1.08617e-226
3.20138e-232
2.28071e-229
6.29851e-235
2.28071e-229
6.29851e-235
-1.08291e-226
-3.19239e-232
6.29851e-235
1.6788e-240
-3.19239e-232
-9.0811e-238
-3.19239e-232
-9.0811e-238
-5.89169e-232
-1.67573e-237
-1.08291e-226
-3.19239e-232
-1.99886e-226
-5.89169e-232
1.6788e-240
4.31851e-246
-9.0811e-238
-2.49252e-243
4.31851e-246
1.07199e-251
-2.49252e-243
-6.60026e-249
-2.49252e-243
-6.60026e-249
-4.59883e-243
-1.21764e-248
-9.0811e-238
-2.49252e-243
-1.67573e-237
-4.59883e-243
-1.67573e-237
-4.59883e-243
-2.17766e-237
-5.97575e-243
-4.59883e-243
-1.21764e-248
-5.97575e-243
-1.58206e-248
-5.97575e-243
-1.58206e-248
-3.24256e-243
-8.5849e-249
-2.17766e-237
-5.97575e-243
-1.1816e-237
-3.24256e-243
-1.99886e-226
-5.89169e-232
-2.59816e-226
-7.65727e-232