<VTKFile type="UnstructuredGrid" version="0.1" byte_order="LittleEndian">
<UnstructuredGrid>
<Piece NumberOfPoints="2048" NumberOfCells="512">
<Points>
<DataArray type="Float64" NumberOfComponents="3" format="ascii">
0 0 0
0.125 0 0
0 0.125 0
0.125 0.125 0
0.125 0 0
0.25 0 0
0.125 0.125 0
0.25 0.125 0
0.125 0.125 0
0.25 0.125 0
0.125 0.25 0
0.25 0.25 0
0 0.125 0
0.125 0.125 0
0 0.25 0
0.125 0.25 0
0.25 0 0
0.375 0 0
0.25 0.125 0
0.375 0.125 0
0.375 0 0
0.5 0 0
0.375 0.125 0
0.5 0.125 0
0.375 0.125 0
0.5 0.125 0
0.375 0.25 0
0.5 0.25 0
0.25 0.125 0
0.375 0.125 0
0.25 0.25 0
0.375 0.25 0
0.25 0.25 0
0.375 0.25 0
0.25 0.375 0
0.375 0.375 0
0.375 0.25 0
0.5 0.25 0
0.375 0.375 0
0.5 0.375 0
0.375 0.375 0
0.5 0.375 0
0.375 0.5 0
0.5 0.5 0
0.25 0.375 0
0.375 0.375 0
0.25 0.5 0
0.375 0.5 0
0 0.25 0
0.125 0.25 0
0 0.375 0
0.125 0.375 0
0.125 0.25 0
0.25 0.25 0
0.125 0.375 0
0.25 0.375 0
0.125 0.375 0
0.25 0.375 0
0.125 0.5 0
0.25 0.5 0
0 0.375 0
0.125 0.375 0
0 0.5 0
0.125 0.5 0
0.5 0 0
0.625 0 0
0.5 0.125 0
0.625 0.125 0
0.625 0 0
0.75 0 0
0.625 0.125 0
0.75 0.125 0
0.625 0.125 0
0.75 0.125 0
0.625 0.25 0
0.75 0.25 0
0.5 0.125 0
0.625 0.125 0
0.5 0.25 0
0.625 0.25 0
0.75 0 0
0.875 0 0
0.75 0.125 0
0.875 0.125 0
0.875 0 0
1 0 0
0.875 0.125 0
1 0.125 0
0.875 0.125 0
1 0.125 0
0.875 0.25 0
1 0.25 0
0.75 0.125 0
0.875 0.125 0
0.75 0.25 0
0.875 0.25 0
0.75 0.25 0
0.875 0.25 0
0.75 0.375 0
0.875 0.375 0
0.875 0.25 0
1 0.25 0
0.875 0.375 0
1 0.375 0
0.875 0.375 0
1 0.375 0
0.875 0.5 0
1 0.5 0
0.75 0.375 0
0.875 0.375 0
0.75 0.5 0
0.875 0.5 0
0.5 0.25 0
0.625 0.25 0
0.5 0.375 0
0.625 0.375 0
0.625 0.25 0
0.75 0.25 0
0.625 0.375 0
0.75 0.375 0
0.625 0.375 0
0.75 0.375 0
0.625 0.5 0
0.75 0.5 0
0.5 0.375 0
0.625 0.375 0
0.5 0.5 0
0.625 0.5 0
0.5 0.5 0
0.625 0.5 0
0.5 0.625 0
0.625 0.625 0
0.625 0.5 0
0.75 0.5 0
0.625 0.625 0
0.75 0.625 0
0.625 0.625 0
0.75 0.625 0
0.625 0.75 0
0.75 0.75 0
0.5 0.625 0
0.625 0.625 0
0.5 0.75 0
0.625 0.75 0
0.75 0.5 0
0.875 0.5 0
0.75 0.625 0
0.875 0.625 0
0.875 0.5 0
1 0.5 0
0.875 0.625 0
1 0.625 0
0.875 0.625 0
1 0.625 0
0.875 0.75 0
1 0.75 0
0.75 0.625 0
0.875 0.625 0
0.75 0.75 0
0.875 0.75 0
0.75 0.75 0
0.875 0.75 0
0.75 0.875 0
0.875 0.875 0
0.875 0.75 0
1 0.75 0
0.875 0.875 0
1 0.875 0
0.875 0.875 0
1 0.875 0
0.875 1 0
1 1 0
0.75 0.875 0
0.875 0.875 0
0.75 1 0
0.875 1 0
0.5 0.75 0
0.625 0.75 0
0.5 0.875 0
0.625 0.875 0
0.625 0.75 0
0.75 0.75 0
0.625 0.875 0
0.75 0.875 0
0.625 0.875 0
0.75 0.875 0
0.625 1 0
0.75 1 0
0.5 0.875 0
0.625 0.875 0
0.5 1 0
0.625 1 0
0 0.5 0
0.125 0.5 0
0 0.625 0
0.125 0.625 0
0.125 0.5 0
0.25 0.5 0
0.125 0.625 0
0.25 0.625 0
0.125 0.625 0
0.25 0.625 0
0.125 0.75 0
0.25 0.75 0
0 0.625 0
0.125 0.625 0
0 0.75 0
0.125 0.75 0
0.25 0.5 0
0.375 0.5 0
0.25 0.625 0
0.375 0.625 0
0.375 0.5 0
0.5 0.5 0
0.375 0.625 0
0.5 0.625 0
0.375 0.625 0
0.5 0.625 0
0.375 0.75 0
0.5 0.75 0
0.25 0.625 0
0.375 0.625 0
0.25 0.75 0
0.375 0.75 0
0.25 0.75 0
0.375 0.75 0
0.25 0.875 0
0.375 0.875 0
0.375 0.75 0
0.5 0.75 0
0.375 0.875 0
0.5 0.875 0
0.375 0.875 0
0.5 0.875 0
0.375 1 0
0.5 1 0
0.25 0.875 0
0.375 0.875 0
0.25 1 0
0.375 1 0
0 0.75 0
0.125 0.75 0
0 0.875 0
0.125 0.875 0
0.125 0.75 0
0.25 0.75 0
0.125 0.875 0
0.25 0.875 0
0.125 0.875 0
0.25 0.875 0
0.125 1 0
0.25 1 0
0 0.875 0
0.125 0.875 0
0 1 0
0.125 1 0
1 0 0
1.125 0 0
1 0.125 0
1.125 0.125 0
1.125 0 0
1.25 0 0
1.125 0.125 0
1.25 0.125 0
1.125 0.125 0
1.25 0.125 0
1.125 0.25 0
1.25 0.25 0
1 0.125 0
1.125 0.125 0
1 0.25 0
1.125 0.25 0
1.25 0 0
1.375 0 0
1.25 0.125 0
1.375 0.125 0
1.375 0 0
1.5 0 0
1.375 0.125 0
1.5 0.125 0
1.375 0.125 0
1.5 0.125 0
1.375 0.25 0
1.5 0.25 0
1.25 0.125 0
1.375 0.125 0
1.25 0.25 0
1.375 0.25 0
1.25 0.25 0
1.375 0.25 0
1.25 0.375 0
1.375 0.375 0
1.375 0.25 0
1.5 0.25 0
1.375 0.375 0
1.5 0.375 0
1.375 0.375 0
1.5 0.375 0
1.375 0.5 0
1.5 0.5 0
1.25 0.375 0
1.375 0.375 0
1.25 0.5 0
1.375 0.5 0
1 0.25 0
1.125 0.25 0
1 0.375 0
1.125 0.375 0
1.125 0.25 0
1.25 0.25 0
1.125 0.375 0
1.25 0.375 0
1.125 0.375 0
1.25 0.375 0
1.125 0.5 0
1.25 0.5 0
1 0.375 0
1.125 0.375 0
1 0.5 0
1.125 0.5 0
1.5 0 0
1.625 0 0
1.5 0.125 0
1.625 0.125 0
1.625 0 0
1.75 0 0
1.625 0.125 0
1.75 0.125 0
1.625 0.125 0
1.75 0.125 0
1.625 0.25 0
1.75 0.25 0
1.5 0.125 0
1.625 0.125 0
1.5 0.25 0
1.625 0.25 0
1.75 0 0
1.875 0 0
1.75 0.125 0
1.875 0.125 0
1.875 0 0
2 0 0
1.875 0.125 0
2 0.125 0
1.875 0.125 0
2 0.125 0
1.875 0.25 0
2 0.25 0
1.75 0.125 0
1.875 0.125 0
1.75 0.25 0
1.875 0.25 0
1.75 0.25 0
1.875 0.25 0
1.75 0.375 0
1.875 0.375 0
1.875 0.25 0
2 0.25 0
1.875 0.375 0
2 0.375 0
1.875 0.375 0
2 0.375 0
1.875 0.5 0
2 0.5 0
1.75 0.375 0
1.875 0.375 0
1.75 0.5 0
1.875 0.5 0
1.5 0.25 0
1.625 0.25 0
1.5 0.375 0
1.625 0.375 0
1.625 0.25 0
1.75 0.25 0
1.625 0.375 0
1.75 0.375 0
1.625 0.375 0
1.75 0.375 0
1.625 0.5 0
1.75 0.5 0
1.5 0.375 0
1.625 0.375 0
1.5 0.5 0
1.625 0.5 0
1.5 0.5 0
1.625 0.5 0
1.5 0.625 0
1.625 0.625 0
1.625 0.5 0
1.75 0.5 0
1.625 0.625 0
1.75 0.625 0
1.625 0.625 0
1.75 0.625 0
1.625 0.75 0
1.75 0.75 0
1.5 0.625 0
1.625 0.625 0
1.5 0.75 0
1.625 0.75 0
1.75 0.5 0
1.875 0.5 0
1.75 0.625 0
1.875 0.625 0
1.875 0.5 0
2 0.5 0
1.875 0.625 0
2 0.625 0
1.875 0.625 0
2 0.625 0
1.875 0.75 0
2 0.75 0
1.75 0.625 0
1.875 0.625 0
1.75 0.75 0
1.875 0.75 0
1.75 0.75 0
1.875 0.75 0
1.75 0.875 0
1.875 0.875 0
1.875 0.75 0
2 0.75 0
1.875 0.875 0
2 0.875 0
1.875 0.875 0
2 0.875 0
1.875 1 0
2 1 0
1.75 0.875 0
1.875 0.875 0
1.75 1 0
1.875 1 0
1.5 0.75 0
1.625 0.75 0
1.5 0.875 0
1.625 0.875 0
1.625 0.75 0
1.75 0.75 0
1.625 0.875 0
1.75 0.875 0
1.625 0.875 0
1.75 0.875 0
1.625 1 0
1.75 1 0
1.5 0.875 0
1.625 0.875 0
1.5 1 0
1.625 1 0
1 0.5 0
1.125 0.5 0
1 0.625 0
1.125 0.625 0
1.125 0.5 0
1.25 0.5 0
1.125 0.625 0
1.25 0.625 0
1.125 0.625 0
1.25 0.625 0
1.125 0.75 0
1.25 0.75 0
1 0.625 0
1.125 0.625 0
1 0.75 0
1.125 0.75 0
1.25 0.5 0
1.375 0.5 0
1.25 0.625 0
1.375 0.625 0
1.375 0.5 0
1.5 0.5 0
1.375 0.625 0
1.5 0.625 0
1.375 0.625 0
1.5 0.625 0
1.375 0.75 0
1.5 0.75 0
1.25 0.625 0
1.375 0.625 0
1.25 0.75 0
1.375 0.75 0
1.25 0.75 0
1.375 0.75 0
1.25 0.875 0
1.375 0.875 0
1.375 0.75 0
1.5 0.75 0
1.375 0.875 0
1.5 0.875 0
1.375 0.875 0
1.5 0.875 0
1.375 1 0
1.5 1 0
1.25 0.875 0
1.375 0.875 0
1.25 1 0
1.375 1 0
1 0.75 0
1.125 0.75 0
1 0.875 0
1.125 0.875 0
1.125 0.75 0
1.25 0.75 0
1.125 0.875 0
1.25 0.875 0
1.125 0.875 0
1.25 0.875 0
1.125 1 0
1.25 1 0
1 0.875 0
1.125 0.875 0
1 1 0
1.125 1 0
2 0 0
2.125 0 0
2 0.125 0
2.125 0.125 0
2.125 0 0
2.25 0 0
2.125 0.125 0
2.25 0.125 0
2.125 0.125 0
2.25 0.125 0
2.125 0.25 0
2.25 0.25 0
2 0.125 0
2.125 0.125 0
2 0.25 0
2.125 0.25 0
2.25 0 0
2.375 0 0
2.25 0.125 0
2.375 0.125 0
2.375 0 0
2.5 0 0
2.375 0.125 0
2.5 0.125 0
2.375 0.125 0
2.5 0.125 0
2.375 0.25 0
2.5 0.25 0
2.25 0.125 0
2.375 0.125 0
2.25 0.25 0
2.375 0.25 0
2.25 0.25 0
2.375 0.25 0
2.25 0.375 0
2.375 0.375 0
2.375 0.25 0
2.5 0.25 0
2.375 0.375 0
2.5 0.375 0
2.375 0.375 0
2.5 0.375 0
2.375 0.5 0
2.5 0.5 0
2.25 0.375 0
2.375 0.375 0
2.25 0.5 0
2.375 0.5 0
2 0.25 0
2.125 0.25 0
2 0.375 0
2.125 0.375 0
2.125 0.25 0
2.25 0.25 0
2.125 0.375 0
2.25 0.375 0
2.125 0.375 0
2.25 0.375 0
2.125 0.5 0
2.25 0.5 0
2 0.375 0
2.125 0.375 0
2 0.5 0
2.125 0.5 0
2.5 0 0
2.625 0 0
2.5 0.125 0
2.625 0.125 0
2.625 0 0
2.75 0 0
2.625 0.125 0
2.75 0.125 0
2.625 0.125 0
2.75 0.125 0
2.625 0.25 0
2.75 0.25 0
2.5 0.125 0
2.625 0.125 0
2.5 0.25 0
2.625 0.25 0
2.75 0 0
2.875 0 0
2.75 0.125 0
2.875 0.125 0
2.875 0 0
3 0 0
2.875 0.125 0
3 0.125 0
2.875 0.125 0
3 0.125 0
2.875 0.25 0
3 0.25 0
2.75 0.125 0
2.875 0.125 0
2.75 0.25 0
2.875 0.25 0
2.75 0.25 0
2.875 0.25 0
2.75 0.375 0
2.875 0.375 0
2.875 0.25 0
3 0.25 0
2.875 0.375 0
3 0.375 0
2.875 0.375 0
3 0.375 0
2.875 0.5 0
3 0.5 0
2.75 0.375 0
2.875 0.375 0
2.75 0.5 0
2.875 0.5 0
2.5 0.25 0
2.625 0.25 0
2.5 0.375 0
2.625 0.375 0
2.625 0.25 0
2.75 0.25 0
2.625 0.375 0
2.75 0.375 0
2.625 0.375 0
2.75 0.375 0
2.625 0.5 0
2.75 0.5 0
2.5 0.375 0
2.625 0.375 0
2.5 0.5 0
2.625 0.5 0
2.5 0.5 0
2.625 0.5 0
2.5 0.625 0
2.625 0.625 0
2.625 0.5 0
2.75 0.5 0
2.625 0.625 0
2.75 0.625 0
2.625 0.625 0
2.75 0.625 0
2.625 0.75 0
2.75 0.75 0
2.5 0.625 0
2.625 0.625 0
2.5 0.75 0
2.625 0.75 0
2.75 0.5 0
2.875 0.5 0
2.75 0.625 0
2.875 0.625 0
2.875 0.5 0
3 0.5 0
2.875 0.625 0
3 0.625 0
2.875 0.625 0
3 0.625 0
2.875 0.75 0
3 0.75 0
2.75 0.625 0
2.875 0.625 0
2.75 0.75 0
2.875 0.75 0
2.75 0.75 0
2.875 0.75 0
2.75 0.875 0
2.875 0.875 0
2.875 0.75 0
3 0.75 0
2.875 0.875 0
3 0.875 0
2.875 0.875 0
3 0.875 0
2.875 1 0
3 1 0
2.75 0.875 0
2.875 0.875 0
2.75 1 0
2.875 1 0
2.5 0.75 0
2.625 0.75 0
2.5 0.875 0
2.625 0.875 0
2.625 0.75 0
2.75 0.75 0
2.625 0.875 0
2.75 0.875 0
2.625 0.875 0
2.75 0.875 0
2.625 1 0
2.75 1 0
2.5 0.875 0
2.625 0.875 0
2.5 1 0
2.625 1 0
2 0.5 0
2.125 0.5 0
2 0.625 0
2.125 0.625 0
2.125 0.5 0
2.25 0.5 0
2.125 0.625 0
2.25 0.625 0
2.125 0.625 0
2.25 0.625 0
2.125 0.75 0
2.25 0.75 0
2 0.625 0
2.125 0.625 0
2 0.75 0
2.125 0.75 0
2.25 0.5 0
2.375 0.5 0
2.25 0.625 0
2.375 0.625 0
2.375 0.5 0
2.5 0.5 0
2.375 0.625 0
2.5 0.625 0
2.375 0.625 0
2.5 0.625 0
2.375 0.75 0
2.5 0.75 0
2.25 0.625 0
2.375 0.625 0
2.25 0.75 0
2.375 0.75 0
2.25 0.75 0
2.375 0.75 0
2.25 0.875 0
2.375 0.875 0
2.375 0.75 0
2.5 0.75 0
2.375 0.875 0
2.5 0.875 0
2.375 0.875 0
2.5 0.875 0
2.375 1 0
2.5 1 0
2.25 0.875 0
2.375 0.875 0
2.25 1 0
2.375 1 0
2 0.75 0
2.125 0.75 0
2 0.875 0
2.125 0.875 0
2.125 0.75 0
2.25 0.75 0
2.125 0.875 0
2.25 0.875 0
2.125 0.875 0
2.25 0.875 0
2.125 1 0
2.25 1 0
2 0.875 0
2.125 0.875 0
2 1 0
2.125 1 0
3 0 0
3.125 0 0
3 0.125 0
3.125 0.125 0
3.125 0 0
3.25 0 0
3.125 0.125 0
3.25 0.125 0
3.125 0.125 0
3.25 0.125 0
3.125 0.25 0
3.25 0.25 0
3 0.125 0
3.125 0.125 0
3 0.25 0
3.125 0.25 0
3.25 0 0
3.375 0 0
3.25 0.125 0
3.375 0.125 0
3.375 0 0
3.5 0 0
3.375 0.125 0
3.5 0.125 0
3.375 0.125 0
3.5 0.125 0
3.375 0.25 0
3.5 0.25 0
3.25 0.125 0
3.375 0.125 0
3.25 0.25 0
3.375 0.25 0
3.25 0.25 0
3.375 0.25 0
3.25 0.375 0
3.375 0.375 0
3.375 0.25 0
3.5 0.25 0
3.375 0.375 0
3.5 0.375 0
3.375 0.375 0
3.5 0.375 0
3.375 0.5 0
3.5 0.5 0
3.25 0.375 0
3.375 0.375 0
3.25 0.5 0
[...]
<CellData Scalars="attribute">
<DataArray type="Int32" Name="attribute" format="ascii">
1
1
1
1
1
1
1
1
1
1
1
1
1
1
1
1
1
1
1
1
1
1
1
1
1
1
1
1
1
1
1
1
1
1
1
1
1
1
1
1
1
1
1
1
1
1
1
1
1
1
1
1
1
1
1
1
1
1
1
1
1
1
1
1
1
1
1
1
1
1
1
1
1
1
1
1
1
1
1
1
1
1
1
1
1
1
1
1
1
1
1
1
1
1
1
1
1
1
1
1
1
1
1
1
1
1
1
1
1
1
1
1
1
1
1
1
1
1
1
1
1
1
1
1
1
1
1
1
1
1
1
1
1
1
1
1
1
1
1
1
1
1
1
1
1
1
1
1
1
1
1
1
1
1
1
1
1
1
1
1
1
1
1
1
1
1
1
1
1
1
1
1
1
1
1
1
1
1
1
1
1
1
1
1
1
1
1
1
1
1
1
1
1
1
1
1
1
1
1
1
1
1
1
1
1
1
1
1
1
1
1
1
1
1
1
1
1
1
1
1
1
1
1
1
1
1
1
1
1
1
1
1
1
1
1
1
1
1
1
1
1
1
1
1
1
1
1
1
1
1
1
1
1
1
1
1
2
2
2
2
2
2
2
2
2
2
2
2
2
2
2
2
2
2
2
2
2
2
2
2
2
2
2
2
2
2
2
2
2
2
2
2
2
2
2
2
2
2
2
2
2
2
2
2
2
2
2
2
2
2
2
2
2
2
2
2
2
2
2
2
2
2
2
2
2
2
2
2
2
2
2
2
2
2
2
2
2
2
2
2
2
2
2
2
2
2
2
2
2
2
2
2
2
2
2
2
2
2
2
2
2
2
2
2
2
2
2
2
2
2
2
2
2
2
2
2
2
2
2
2
2
2
2
2
2
2
2
2
2
2
2
2
2
2
2
2
2
2
2
2
2
2
2
2
2
2
2
2
2
2
2
2
2
2
2
2
2
2
2
2
2
2
2
2
2
2
2
2
2
2
2
2
2
2
2
2
2
2
2
2
2
2
2
2
2
2
2
2
2
2
2
2
2
2
2
2
2
2
2
2
2
2
2
2
2
2
2
2
2
2
2
2
2
2
2
2
2
2
2
2
2
2
2
2
2
2
2
2
2
2
2
2
2
2
2
2
2
2
2
2
2
2
2
2
2
2
2
2
2
2
2
2
</DataArray>
</CellData>
<PointData >
<DataArray type="Float64" Name="Pressure" NumberOfComponents="1" format="ascii" >
-0.000223156
-2.08182e-07
-0.000365171
-3.44616e-07
-2.08182e-07
8.08377e-12
-3.44616e-07
1.39989e-11
-3.44616e-07
1.39989e-11
-2.31356e-07
9.50631e-12
-0.000365171
-3.44616e-07
-0.00024345
-2.31356e-07
8.08377e-12
-2.01089e-16
1.39989e-11
-3.59025e-16
-2.01089e-16
5.09649e-21
-3.59025e-16
9.43372e-21
-3.59025e-16
9.43372e-21
-2.49982e-16
6.74647e-21
1.39989e-11
-3.59025e-16
9.50631e-12
-2.49982e-16
9.50631e-12
-2.49982e-16
4.8716e-12
-1.27737e-16
-2.49982e-16
6.74647e-21
-1.27737e-16
3.45098e-21
-1.27737e-16
3.45098e-21
-4.22758e-18
1.09459e-22
4.8716e-12
-1.27737e-16
1.71701e-13
-4.22758e-18
-0.00024345
-2.31356e-07
-0.000121727
-1.17481e-07
-2.31356e-07
9.50631e-12
-1.17481e-07
4.8716e-12
-1.17481e-07
4.8716e-12
-2.60188e-09
1.71701e-13
-0.000121727
-1.17481e-07
-3.20174e-09
-2.60188e-09
5.09649e-21
-6.7135e-26
9.43372e-21
-1.28791e-25
-6.7135e-26
1.53389e-30
-1.28791e-25
2.95892e-30
-1.28791e-25
2.95892e-30
-9.54064e-26
2.22331e-30
9.43372e-21
-1.28791e-25
6.74647e-21
-9.54064e-26
1.53389e-30
-8.55369e-36
2.95892e-30
-1.81916e-35
-8.55369e-36
2.99354e-40
-1.81916e-35
5.86108e-40
-1.81916e-35
5.86108e-40
-1.47074e-35
4.53864e-40
2.95892e-30
-1.81916e-35
2.22331e-30
-1.47074e-35
2.22331e-30
-1.47074e-35
1.15586e-30
-7.7547e-36
-1.47074e-35
4.53864e-40
-7.7547e-36
2.41026e-40
-7.7547e-36
2.41026e-40
-2.23519e-37
6.13663e-42
1.15586e-30
-7.7547e-36
3.31499e-32
-2.23519e-37
6.74647e-21
-9.54064e-26
3.45098e-21
-4.91026e-26
-9.54064e-26
2.22331e-30
-4.91026e-26
1.15586e-30
-4.91026e-26
1.15586e-30
-1.49943e-27
3.31499e-32
3.45098e-21
-4.91026e-26
1.09459e-22
-1.49943e-27
1.09459e-22
-1.49943e-27
-3.27866e-21
4.67655e-26
-1.49943e-27
3.31499e-32
4.67655e-26
-1.10528e-30
4.67655e-26
-1.10528e-30
9.50645e-26
-2.21743e-30
-3.27866e-21
4.67655e-26
-6.71475e-21
9.50645e-26
3.31499e-32
-2.23519e-37
-1.10528e-30
7.41605e-36
-2.23519e-37
6.13663e-42
7.41605e-36
-2.31927e-40
7.41605e-36
-2.31927e-40
1.46677e-35
-4.53129e-40
-1.10528e-30
7.41605e-36
-2.21743e-30
1.46677e-35
-2.21743e-30
1.46677e-35
-3.00613e-30
1.84686e-35
1.46677e-35
-4.53129e-40
1.84686e-35
-5.94308e-40
1.84686e-35
-5.94308e-40
8.74036e-36
-3.05148e-40
-3.00613e-30
1.84686e-35
-1.56841e-30
8.74036e-36
-6.71475e-21
9.50645e-26
-9.60186e-21
1.30983e-25
9.50645e-26
-2.21743e-30
1.30983e-25
-3.00613e-30
1.30983e-25
-3.00613e-30
6.87643e-26
-1.56841e-30
-9.60186e-21
1.30983e-25
-5.23048e-21
6.87643e-26
-3.20174e-09
-2.60188e-09
0.000121722
1.13282e-07
-2.60188e-09
1.71701e-13
1.13282e-07
-4.5951e-12
1.13282e-07
-4.5951e-12
2.30171e-07
-9.43034e-12
0.000121722
1.13282e-07
0.000243448
2.30171e-07
1.71701e-13
-4.22758e-18
-4.5951e-12
1.20998e-16
-4.22758e-18
1.09459e-22
1.20998e-16
-3.27866e-21
1.20998e-16
-3.27866e-21
2.48415e-16
-6.71475e-21
-4.5951e-12
1.20998e-16
-9.43034e-12
2.48415e-16
-9.43034e-12
2.48415e-16
-1.42578e-11
3.65705e-16
2.48415e-16
-6.71475e-21
3.65705e-16
-9.60186e-21
3.65705e-16
-9.60186e-21
2.06776e-16
-5.23048e-21
-1.42578e-11
3.65705e-16
-8.34898e-12
2.06776e-16
0.000243448
2.30171e-07
0.000365176
3.48494e-07
2.30171e-07
-9.43034e-12
3.48494e-07
-1.42578e-11
3.48494e-07
-1.42578e-11
2.12291e-07
-8.34898e-12
0.000365176
3.48494e-07
0.000223161
2.12291e-07
2.99354e-40
2.81196e-46
5.86108e-40
1.01029e-46
2.81196e-46
4.55128e-50
1.01029e-46
8.83184e-50
1.01029e-46
8.83184e-50
-1.83699e-46
6.89266e-50
5.86108e-40
1.01029e-46
4.53864e-40
-1.83699e-46
4.55128e-50
2.63285e-55
8.83184e-50
4.45537e-55
2.63285e-55
5.74689e-60
4.45537e-55
1.09514e-59
4.45537e-55
1.09514e-59
3.0749e-55
8.50056e-60
8.83184e-50
4.45537e-55
6.89266e-50
3.0749e-55
6.89266e-50
3.0749e-55
3.71477e-50
1.60272e-55
3.0749e-55
8.50056e-60
1.60272e-55
4.60912e-60
1.60272e-55
4.60912e-60
2.6942e-57
8.76744e-62
3.71477e-50
1.60272e-55
8.22994e-52
2.6942e-57
4.53864e-40
-1.83699e-46
2.41026e-40
-1.246e-46
-1.83699e-46
6.89266e-50
-1.246e-46
3.71477e-50
-1.246e-46
3.71477e-50
-7.01619e-48
8.22994e-52
2.41026e-40
-1.246e-46
6.13663e-42
-7.01619e-48
5.74689e-60
4.64299e-65
1.09514e-59
8.32268e-65
4.64299e-65
5.91364e-70
8.32268e-65
1.11072e-69
8.32268e-65
1.11072e-69
6.1145e-65
8.56223e-70
1.09514e-59
8.32268e-65
8.50056e-60
6.1145e-65
5.91364e-70
4.99209e-75
1.11072e-69
9.11497e-75
4.99209e-75
4.82368e-80
9.11497e-75
8.98548e-80
9.11497e-75
8.98548e-80
6.84706e-75
6.90018e-80
1.11072e-69
9.11497e-75
8.56223e-70
6.84706e-75
8.56223e-70
6.84706e-75
4.64894e-70
3.68119e-75
6.84706e-75
6.90018e-80
3.68119e-75
3.74731e-80
3.68119e-75
3.74731e-80
5.29434e-77
5.24938e-82
4.64894e-70
3.68119e-75
7.57356e-72
5.29434e-77
8.50056e-60
6.1145e-65
4.60912e-60
3.25573e-65
6.1145e-65
8.56223e-70
3.25573e-65
4.64894e-70
3.25573e-65
4.64894e-70
5.23131e-67
7.57356e-72
4.60912e-60
3.25573e-65
8.76744e-62
5.23131e-67
8.76744e-62
5.23131e-67
-4.48292e-60
-3.18171e-65
5.23131e-67
7.57356e-72
-3.18171e-65
-4.54069e-70
-3.18171e-65
-4.54069e-70
-6.1165e-65
-8.55924e-70
-4.48292e-60
-3.18171e-65
-8.49521e-60
-6.1165e-65
7.57356e-72
5.29434e-77
-4.54069e-70
-3.60632e-75
5.29434e-77
5.24938e-82
-3.60632e-75
-3.67262e-80
-3.60632e-75
-3.67262e-80
-6.84813e-75
-6.89895e-80
-4.54069e-70
-3.60632e-75
-8.55924e-70
-6.84813e-75
-8.55924e-70
-6.84813e-75
-1.12094e-69
-9.19389e-75
-6.84813e-75
-6.89895e-80
-9.19389e-75
-9.05764e-80
-9.19389e-75
-9.05764e-80
-5.04833e-75
-4.87486e-80
-1.12094e-69
-9.19389e-75
-5.98604e-70
-5.04833e-75
-8.49521e-60
-6.1165e-65
-1.10671e-59
-8.40522e-65
-6.1165e-65
-8.55924e-70
-8.40522e-65
-1.12094e-69
-8.40522e-65
-1.12094e-69
-4.70254e-65
-5.98604e-70
-1.10671e-59
-8.40522e-65
-5.82852e-60
-4.70254e-65
6.13663e-42
-7.01619e-48
-2.31927e-40
1.13623e-46
-7.01619e-48
8.22994e-52
1.13623e-46
-3.59498e-50
1.13623e-46
-3.59498e-50
1.80205e-46
-6.88552e-50
-2.31927e-40
1.13623e-46
-4.53129e-40
1.80205e-46
8.22994e-52
2.6942e-57
-3.59498e-50
-1.56478e-55
2.6942e-57
8.76744e-62
-1.56478e-55
-4.48292e-60
-1.56478e-55
-4.48292e-60
-3.07775e-55
-8.49521e-60
-3.59498e-50
-1.56478e-55
-6.88552e-50
-3.07775e-55
-6.88552e-50
-3.07775e-55
-8.93923e-50
-4.50565e-55
-3.07775e-55
-8.49521e-60
-4.50565e-55
-1.10671e-59
-4.50565e-55
-1.10671e-59
-2.6706e-55
-5.82852e-60
-8.93923e-50
-4.50565e-55
-4.62673e-50
-2.6706e-55
-4.53129e-40
1.80205e-46
-5.94308e-40
-1.01572e-46
1.80205e-46
-6.88552e-50
-1.01572e-46
-8.93923e-50
-1.01572e-46
-8.93923e-50
-2.8397e-46
-4.62673e-50
-5.94308e-40
-1.01572e-46
-3.05148e-40
-2.8397e-46
4.82368e-80
3.83415e-85
8.98548e-80
7.0524e-85
3.83415e-85
3.09384e-90
7.0524e-85
5.7396e-90
7.0524e-85
5.7396e-90
5.35394e-85
4.40231e-90
8.98548e-80
7.0524e-85
6.90018e-80
5.35394e-85
3.09384e-90
2.23537e-95
5.7396e-90
4.12404e-95
2.23537e-95
1.56954e-100
4.12404e-95
2.90601e-100
4.12404e-95
2.90601e-100
3.14826e-95
2.22923e-100
5.7396e-90
4.12404e-95
4.40231e-90
3.14826e-95
4.40231e-90
3.14826e-95
2.39131e-90
1.70642e-95
3.14826e-95
2.22923e-100
1.70642e-95
1.21128e-100
1.70642e-95
1.21128e-100
1.89764e-97
1.27267e-102
2.39131e-90
1.70642e-95
2.89529e-92
1.89764e-97
6.90018e-80
5.35394e-85
3.74731e-80
2.89356e-85
5.35394e-85
4.40231e-90
2.89356e-85
2.39131e-90
2.89356e-85
2.39131e-90
3.66961e-87
2.89529e-92
3.74731e-80
2.89356e-85
5.24938e-82
3.66961e-87
1.56954e-100
1.02166e-105
2.90601e-100
1.887e-105
1.02166e-105
6.36826e-111
1.887e-105
1.17789e-110
1.887e-105
1.17789e-110
1.44502e-105
9.04138e-111
2.90601e-100
1.887e-105
2.22923e-100
1.44502e-105
6.36826e-111
3.7364e-116
1.17789e-110
6.90329e-116
3.7364e-116
2.091e-121
6.90329e-116
3.86524e-121
6.90329e-116
3.86524e-121
5.29619e-116
2.969e-121
1.17789e-110
6.90329e-116
9.04138e-111
5.29619e-116
9.04138e-111
5.29619e-116
4.91421e-111
2.87762e-116
5.29619e-116
2.969e-121
2.87762e-116
1.61407e-121
2.87762e-116
1.61407e-121
2.44682e-118
1.28629e-123
4.91421e-111
2.87762e-116
4.49275e-113
2.44682e-118
2.22923e-100
1.44502e-105
1.21128e-100
7.84467e-106
1.44502e-105
9.04138e-111
7.84467e-106
4.91421e-111
7.84467e-106
4.91421e-111
7.63173e-108
4.49275e-113
1.21128e-100
7.84467e-106
1.27267e-102
7.63173e-108
1.27267e-102
7.63173e-108
-1.19325e-100
-7.73676e-106
7.63173e-108
4.49275e-113
-7.73676e-106
-4.8506e-111
-7.73676e-106
-4.8506e-111
-1.44504e-105
-9.04114e-111
-1.19325e-100
-7.73676e-106
-2.22914e-100
-1.44504e-105
4.49275e-113
2.44682e-118
-4.8506e-111
-2.84301e-116
2.44682e-118
1.28629e-123
-2.84301e-116
-1.59586e-121
-2.84301e-116
-1.59586e-121
-5.29618e-116
-2.96894e-121
-4.8506e-111
-2.84301e-116
-9.04114e-111
-5.29618e-116
-9.04114e-111
-5.29618e-116
-1.18419e-110
-6.93778e-116
-5.29618e-116
-2.96894e-121
-6.93778e-116
-3.88326e-121
-6.93778e-116
-3.88326e-121
-3.76082e-116
-2.10376e-121
-1.18419e-110
-6.93778e-116
-6.41285e-111
-3.76082e-116
-2.22914e-100
-1.44504e-105
-2.9238e-100
-1.89782e-105
-1.44504e-105
-9.04114e-111
-1.89782e-105
-1.18419e-110
-1.89782e-105
-1.18419e-110
-1.02932e-105
-6.41285e-111
-2.9238e-100
-1.89782e-105
-1.58215e-100
-1.02932e-105
5.24938e-82
3.66961e-87
-3.67262e-80
-2.84168e-85
3.66961e-87
2.89529e-92
-2.84168e-85
-2.35022e-90
-2.84168e-85
-2.35022e-90
-5.35436e-85
-4.40192e-90
-3.67262e-80
-2.84168e-85
-6.89895e-80
-5.35436e-85
2.89529e-92
1.89764e-97
-2.35022e-90
-1.67959e-95
1.89764e-97
1.27267e-102
-1.67959e-95
-1.19325e-100
-1.67959e-95
-1.19325e-100
-3.14838e-95
-2.22914e-100
-2.35022e-90
-1.67959e-95
-4.40192e-90
-3.14838e-95
-4.40192e-90
-3.14838e-95
-5.77985e-90
-4.15117e-95
-3.14838e-95
-2.22914e-100
-4.15117e-95
-2.9238e-100
-4.15117e-95
-2.9238e-100
-2.25458e-95
-1.58215e-100
-5.77985e-90
-4.15117e-95
-3.12238e-90
-2.25458e-95
-6.89895e-80
-5.35436e-85
-9.05764e-80
-7.10563e-85
-5.35436e-85
-4.40192e-90
-7.10563e-85
-5.77985e-90
-7.10563e-85
-5.77985e-90
-3.87191e-85
-3.12238e-90
-9.05764e-80
-7.10563e-85
-4.87486e-80
-3.87191e-85
2.091e-121
1.10963e-126
3.86524e-121
2.05003e-126
1.10963e-126
5.61589e-132
2.05003e-126
1.03766e-131
2.05003e-126
1.03766e-131
1.57463e-126
7.97556e-132
3.86524e-121
2.05003e-126
2.969e-121
1.57463e-126
5.61589e-132
2.7062e-137
1.03766e-131
4.99871e-137
2.7062e-137
1.24507e-142
4.99871e-137
2.29972e-142
4.99871e-137
2.29972e-142
3.84254e-137
1.76851e-142
1.03766e-131
4.99871e-137
7.97556e-132
3.84254e-137
7.97556e-132
3.84254e-137
4.33634e-132
2.08908e-137
3.84254e-137
1.76851e-142
2.08908e-137
9.6158e-143
2.08908e-137
9.6158e-143
1.35648e-139
5.84126e-145
4.33634e-132
2.08908e-137
3.01586e-134
1.35648e-139
2.969e-121
1.57463e-126
1.61407e-121
8.55921e-127
1.57463e-126
7.97556e-132
8.55921e-127
4.33634e-132
8.55921e-127
4.33634e-132
6.35953e-129
3.01586e-134
1.61407e-121
8.55921e-127
1.28629e-123
6.35953e-129
1.24507e-142
5.4683e-148
2.29972e-142
1.00982e-147
5.4683e-148
2.29604e-153
1.00982e-147
4.23963e-153
1.00982e-147
4.23963e-153
7.76679e-148
3.26165e-153
2.29972e-142
1.00982e-147
1.76851e-142
7.76679e-148
2.29604e-153
9.21963e-159
4.23963e-153
1.70212e-158
9.21963e-159
3.54357e-164
1.70212e-158
6.54136e-164
1.70212e-158
6.54136e-164
1.30967e-158
5.03405e-164
4.23963e-153
1.70212e-158
3.26165e-153
1.30967e-158
3.26165e-153
1.30967e-158
1.77339e-153
7.12051e-159
1.30967e-158
5.03405e-164
7.12051e-159
2.73689e-164
7.12051e-159
2.73689e-164
3.53423e-161
1.27071e-166
1.77339e-153
7.12051e-159
9.41545e-156
3.53423e-161
1.76851e-142
7.76679e-148
9.6158e-143
4.2228e-148
7.76679e-148
3.26165e-153
4.2228e-148
1.77339e-153
4.2228e-148
1.77339e-153
2.39687e-150
9.41545e-156
9.6158e-143
4.2228e-148
5.84126e-145
2.39687e-150
5.84126e-145
2.39687e-150
-9.53308e-143
-4.18886e-148
2.39687e-150
9.41545e-156
-4.18886e-148
-1.76005e-153
-4.18886e-148
-1.76005e-153
-7.76659e-148
-3.26156e-153
-9.53308e-143
-4.18886e-148
-1.76847e-142
-7.76659e-148
9.41545e-156
3.53423e-161
-1.76005e-153
-7.07042e-159
3.53423e-161
1.27071e-166
-7.07042e-159
-2.71887e-164
-7.07042e-159
-2.71887e-164
-1.30963e-158
-5.03389e-164
-1.76005e-153
-7.07042e-159
-3.26156e-153
-1.30963e-158
-3.26156e-153
-1.30963e-158
-4.25273e-153
-1.70703e-158
-1.30963e-158
-5.03389e-164
-1.70703e-158
-6.55899e-164
-1.70703e-158
-6.55899e-164
-9.25442e-159
-3.55605e-164
-4.25273e-153
-1.70703e-158
-2.30532e-153
-9.25442e-159
-1.76847e-142
-7.76659e-148
-2.30788e-142
-1.01316e-147
-7.76659e-148
-3.26156e-153
-1.01316e-147
-4.25273e-153
-1.01316e-147
-4.25273e-153
-5.49198e-148
-2.30532e-153
-2.30788e-142
-1.01316e-147
-1.25084e-142
-5.49198e-148
1.28629e-123
6.35953e-129
-1.59586e-121
-8.46923e-127
6.35953e-129
3.01586e-134
-8.46923e-127
-4.29365e-132
-8.46923e-127
-4.29365e-132
-1.57461e-126
-7.97538e-132
-1.59586e-121
-8.46923e-127
-2.96894e-121
-1.57461e-126
3.01586e-134
1.35648e-139
-4.29365e-132
-2.06988e-137
1.35648e-139
5.84126e-145
-2.06988e-137
-9.53308e-143
-2.06988e-137
-9.53308e-143
-3.84247e-137
-1.76847e-142
-4.29365e-132
-2.06988e-137
-7.97538e-132
-3.84247e-137
-7.97538e-132
-3.84247e-137
-1.04187e-131
-5.0177e-137
-3.84247e-137
-1.76847e-142
-5.0177e-137
-2.30788e-142
-5.0177e-137
-2.30788e-142
-2.71964e-137
-1.25084e-142
-1.04187e-131
-5.0177e-137
-5.64577e-132
-2.71964e-137
-2.96894e-121
-1.57461e-126
-3.88326e-121
-2.05896e-126
-1.57461e-126
-7.97538e-132
-2.05896e-126
-1.04187e-131
-2.05896e-126
-1.04187e-131
-1.11595e-126
-5.64577e-132
-3.88326e-121
-2.05896e-126
-2.10376e-121
-1.11595e-126
3.54357e-164
1.30418e-169
6.54136e-164
2.40715e-169
1.30418e-169
4.59883e-175
2.40715e-169
8.48719e-175
2.40715e-169
8.48719e-175
1.8527e-169
6.53315e-175
6.54136e-164
2.40715e-169
5.03405e-164
1.8527e-169
4.59883e-175
1.55424e-180
8.48719e-175
2.86802e-180
1.55424e-180
5.03615e-186
2.86802e-180
9.29213e-186
2.86802e-180
9.29213e-186
2.20792e-180
7.15417e-186
8.48719e-175
2.86802e-180
6.53315e-175
2.20792e-180
6.53315e-175
2.20792e-180
3.5516e-175
1.20023e-180
2.20792e-180
7.15417e-186
1.20023e-180
3.88883e-186
1.20023e-180
3.88883e-186
4.56111e-183
1.38285e-188
3.5516e-175
1.20023e-180
1.44274e-177
4.56111e-183
5.03405e-164
1.8527e-169
2.73689e-164
1.00722e-169
1.8527e-169
6.53315e-175
1.00722e-169
3.5516e-175
1.00722e-169
3.5516e-175
4.37345e-172
1.44274e-177
2.73689e-164
1.00722e-169
1.27071e-166
4.37345e-172
5.03615e-186
1.56487e-191
9.29213e-186
2.88701e-191
1.56487e-191
4.66364e-197
2.88701e-191
8.60304e-197
2.88701e-191
8.60304e-197
2.22294e-191
6.62467e-197
9.29213e-186
2.88701e-191
7.15417e-186
2.22294e-191
4.66364e-197
1.33308e-202
8.60304e-197
2.4589e-202
1.33308e-202
3.6547e-208
2.4589e-202
6.74061e-208
2.4589e-202
6.74061e-208
1.89357e-202
5.19118e-208
8.60304e-197
2.4589e-202
6.62467e-197
1.89357e-202
6.62467e-197
1.89357e-202
3.60064e-197
1.02914e-202
1.89357e-202
5.19118e-208
1.02914e-202
2.82123e-208
1.02914e-202
2.82123e-208
3.00014e-205
7.69966e-211
3.60064e-197
1.02914e-202
1.12138e-199
3.00014e-205
7.15417e-186
2.22294e-191
3.88883e-186
1.20827e-191
2.22294e-191
6.62467e-197
1.20827e-191
3.60064e-197
1.20827e-191
3.60064e-197
4.02057e-194
1.12138e-199
3.88883e-186
1.20827e-191
1.38285e-188
4.02057e-194
1.38285e-188
4.02057e-194
-3.86919e-186
-1.20256e-191
4.02057e-194
1.12138e-199
-1.20256e-191
-3.5847e-197
-1.20256e-191
-3.5847e-197
-2.22285e-191
-6.62439e-197
-3.86919e-186
-1.20256e-191
-7.15389e-186
-2.22285e-191
1.12138e-199
3.00014e-205
-3.5847e-197
-1.02488e-202
3.00014e-205
7.69966e-211
-1.02488e-202
-2.81027e-208
-1.02488e-202
-2.81027e-208
-1.89349e-202
-5.19095e-208
-3.5847e-197
-1.02488e-202
-6.62439e-197
-1.89349e-202
-6.62439e-197
-1.89349e-202
-8.61838e-197
-2.46299e-202
-1.89349e-202
-5.19095e-208
-2.46299e-202
-6.75108e-208
-2.46299e-202
-6.75108e-208
-1.33598e-202
-3.66212e-208
-8.61838e-197
-2.46299e-202
-4.6745e-197
-1.33598e-202
-7.15389e-186
-2.22285e-191
-9.31115e-186
-2.89253e-191
-2.22285e-191
-6.62439e-197
-2.89253e-191
-8.61838e-197
-2.89253e-191
-8.61838e-197
-1.56877e-191
-4.6745e-197
-9.31115e-186
-2.89253e-191
-5.04961e-186
-1.56877e-191
1.27071e-166
4.37345e-172
-2.71887e-164
-1.00102e-169
4.37345e-172
1.44274e-177
-1.00102e-169
-3.53113e-175
-1.00102e-169
-3.53113e-175
-1.85264e-169
-6.53291e-175
-2.71887e-164
-1.00102e-169
-5.03389e-164
-1.85264e-169
1.44274e-177
4.56111e-183
-3.53113e-175
-1.19375e-180
4.56111e-183
1.38285e-188
-1.19375e-180
-3.86919e-186
-1.19375e-180
-3.86919e-186
-2.20784e-180
-7.15389e-186
-3.53113e-175
-1.19375e-180
-6.53291e-175
-2.20784e-180
-6.53291e-175
-2.20784e-180
-8.50713e-175
-2.8743e-180
-2.20784e-180
-7.15389e-186
-2.8743e-180
-9.31115e-186
-2.8743e-180
-9.31115e-186
-1.55869e-180
-5.04961e-186
-8.50713e-175
-2.8743e-180
-4.61295e-175
-1.55869e-180
-5.03389e-164
-1.85264e-169
-6.55899e-164
-2.41321e-169
-1.85264e-169
-6.53291e-175
-2.41321e-169
-8.50713e-175
-2.41321e-169
-8.50713e-175
-1.30847e-169
-4.61295e-175
-6.55899e-164
-2.41321e-169
-3.55605e-164
-1.30847e-169
3.6547e-208
9.60828e-214
6.74061e-208
1.77197e-213
9.60828e-214
2.42168e-219
1.77197e-213
4.46573e-219
1.77197e-213
4.46573e-219
1.36473e-213
3.43957e-219
6.74061e-208
1.77197e-213
5.19118e-208
1.36473e-213
2.42168e-219
5.84908e-225
4.46573e-219
1.07852e-224
5.84908e-225
1.35303e-230
1.07852e-224
2.49471e-230
1.07852e-224
2.49471e-230
8.30732e-225
1.92163e-230
4.46573e-219
1.07852e-224
3.43957e-219
8.30732e-225
3.43957e-219
8.30732e-225
1.86911e-219
4.51412e-225
8.30732e-225
1.92163e-230
4.51412e-225
1.04415e-230
4.51412e-225
1.04415e-230
1.01181e-227
2.19249e-233
1.86911e-219
4.51412e-225
4.47295e-222
1.01181e-227
5.19118e-208
1.36473e-213
2.82123e-208
7.41648e-214
1.36473e-213
3.43957e-219
7.41648e-214
1.86911e-219
7.41648e-214
1.86911e-219
1.8952e-216
4.47295e-222
2.82123e-208
7.41648e-214
7.69966e-211
1.8952e-216
1.35303e-230
2.99536e-236
2.49471e-230
5.52246e-236
2.99536e-236
6.33986e-242
5.52246e-236
1.16879e-241
5.52246e-236
1.16879e-241
4.254e-236
9.00357e-242
2.49471e-230
5.52246e-236
1.92163e-230
4.254e-236
6.33986e-242
1.28127e-247
1.16879e-241
2.36195e-247
1.28127e-247
2.4684e-253
2.36195e-247
4.5501e-253
2.36195e-247
4.5501e-253
1.81955e-247
3.5053e-253
1.16879e-241
2.36195e-247
9.00357e-242
1.81955e-247
9.00357e-242
1.81955e-247
4.89186e-242
9.88569e-248
1.81955e-247
3.5053e-253
9.88569e-248
1.90438e-253
9.88569e-248
1.90438e-253
1.70856e-250
3.08588e-256
4.89186e-242
9.88569e-248
9.01969e-245
1.70856e-250
1.92163e-230
4.254e-236
1.04415e-230
2.31139e-236
4.254e-236
9.00357e-242
2.31139e-236
4.89186e-242
2.31139e-236
4.89186e-242
4.54753e-239
9.01969e-245
1.04415e-230
2.31139e-236
2.19249e-233
4.54753e-239
2.19249e-233
4.54753e-239
-1.04102e-230
-2.30489e-236
4.54753e-239
9.01969e-245
-2.30489e-236
-4.87896e-242
-2.30489e-236
-4.87896e-242
-4.25378e-236
-9.0031e-242
-1.04102e-230
-2.30489e-236
-1.92153e-230
-4.25378e-236
9.01969e-245
1.70856e-250
-4.87896e-242
-9.86125e-248
1.70856e-250
3.08588e-256
-9.86125e-248
-1.89996e-253
-9.86125e-248
-1.89996e-253
-1.81946e-247
-3.50512e-253
-4.87896e-242
-9.86125e-248
-9.0031e-242
-1.81946e-247
-9.0031e-242
-1.81946e-247
-1.16998e-241
-2.36421e-247
-1.81946e-247
-3.50512e-253
-2.36421e-247
-4.55415e-253
-2.36421e-247
-4.55415e-253
-1.28287e-247
-2.47126e-253
-1.16998e-241
-2.36421e-247