<VTKFile type="UnstructuredGrid" version="0.1" byte_order="LittleEndian">
<UnstructuredGrid>
<Piece NumberOfPoints="2048" NumberOfCells="512">
<Points>
<DataArray type="Float64" NumberOfComponents="3" format="ascii">
0 0 0
0.125 0 0
0 0.125 0
0.125 0.125 0
0.125 0 0
0.25 0 0
0.125 0.125 0
0.25 0.125 0
0.125 0.125 0
0.25 0.125 0
0.125 0.25 0
0.25 0.25 0
0 0.125 0
0.125 0.125 0
0 0.25 0
0.125 0.25 0
0.25 0 0
0.375 0 0
0.25 0.125 0
0.375 0.125 0
0.375 0 0
0.5 0 0
0.375 0.125 0
0.5 0.125 0
0.375 0.125 0
0.5 0.125 0
0.375 0.25 0
0.5 0.25 0
0.25 0.125 0
0.375 0.125 0
0.25 0.25 0
0.375 0.25 0
0.25 0.25 0
0.375 0.25 0
0.25 0.375 0
0.375 0.375 0
0.375 0.25 0
0.5 0.25 0
0.375 0.375 0
0.5 0.375 0
0.375 0.375 0
0.5 0.375 0
0.375 0.5 0
0.5 0.5 0
0.25 0.375 0
0.375 0.375 0
0.25 0.5 0
0.375 0.5 0
0 0.25 0
0.125 0.25 0
0 0.375 0
0.125 0.375 0
0.125 0.25 0
0.25 0.25 0
0.125 0.375 0
0.25 0.375 0
0.125 0.375 0
0.25 0.375 0
0.125 0.5 0
0.25 0.5 0
0 0.375 0
0.125 0.375 0
0 0.5 0
0.125 0.5 0
0.5 0 0
0.625 0 0
0.5 0.125 0
0.625 0.125 0
0.625 0 0
0.75 0 0
0.625 0.125 0
0.75 0.125 0
0.625 0.125 0
0.75 0.125 0
0.625 0.25 0
0.75 0.25 0
0.5 0.125 0
0.625 0.125 0
0.5 0.25 0
0.625 0.25 0
0.75 0 0
0.875 0 0
0.75 0.125 0
0.875 0.125 0
0.875 0 0
1 0 0
0.875 0.125 0
1 0.125 0
0.875 0.125 0
1 0.125 0
0.875 0.25 0
1 0.25 0
0.75 0.125 0
0.875 0.125 0
0.75 0.25 0
0.875 0.25 0
0.75 0.25 0
0.875 0.25 0
0.75 0.375 0
0.875 0.375 0
0.875 0.25 0
1 0.25 0
0.875 0.375 0
1 0.375 0
0.875 0.375 0
1 0.375 0
0.875 0.5 0
1 0.5 0
0.75 0.375 0
0.875 0.375 0
0.75 0.5 0
0.875 0.5 0
0.5 0.25 0
0.625 0.25 0
0.5 0.375 0
0.625 0.375 0
0.625 0.25 0
0.75 0.25 0
0.625 0.375 0
0.75 0.375 0
0.625 0.375 0
0.75 0.375 0
0.625 0.5 0
0.75 0.5 0
0.5 0.375 0
0.625 0.375 0
0.5 0.5 0
0.625 0.5 0
0.5 0.5 0
0.625 0.5 0
0.5 0.625 0
0.625 0.625 0
0.625 0.5 0
0.75 0.5 0
0.625 0.625 0
0.75 0.625 0
0.625 0.625 0
0.75 0.625 0
0.625 0.75 0
0.75 0.75 0
0.5 0.625 0
0.625 0.625 0
0.5 0.75 0
0.625 0.75 0
0.75 0.5 0
0.875 0.5 0
0.75 0.625 0
0.875 0.625 0
0.875 0.5 0
1 0.5 0
0.875 0.625 0
1 0.625 0
0.875 0.625 0
1 0.625 0
0.875 0.75 0
1 0.75 0
0.75 0.625 0
0.875 0.625 0
0.75 0.75 0
0.875 0.75 0
0.75 0.75 0
0.875 0.75 0
0.75 0.875 0
0.875 0.875 0
0.875 0.75 0
1 0.75 0
0.875 0.875 0
1 0.875 0
0.875 0.875 0
1 0.875 0
0.875 1 0
1 1 0
0.75 0.875 0
0.875 0.875 0
0.75 1 0
0.875 1 0
0.5 0.75 0
0.625 0.75 0
0.5 0.875 0
0.625 0.875 0
0.625 0.75 0
0.75 0.75 0
0.625 0.875 0
0.75 0.875 0
0.625 0.875 0
0.75 0.875 0
0.625 1 0
0.75 1 0
0.5 0.875 0
0.625 0.875 0
0.5 1 0
0.625 1 0
0 0.5 0
0.125 0.5 0
0 0.625 0
0.125 0.625 0
0.125 0.5 0
0.25 0.5 0
0.125 0.625 0
0.25 0.625 0
0.125 0.625 0
0.25 0.625 0
0.125 0.75 0
0.25 0.75 0
0 0.625 0
0.125 0.625 0
0 0.75 0
0.125 0.75 0
0.25 0.5 0
0.375 0.5 0
0.25 0.625 0
0.375 0.625 0
0.375 0.5 0
0.5 0.5 0
0.375 0.625 0
0.5 0.625 0
0.375 0.625 0
0.5 0.625 0
0.375 0.75 0
0.5 0.75 0
0.25 0.625 0
0.375 0.625 0
0.25 0.75 0
0.375 0.75 0
0.25 0.75 0
0.375 0.75 0
0.25 0.875 0
0.375 0.875 0
0.375 0.75 0
0.5 0.75 0
0.375 0.875 0
0.5 0.875 0
0.375 0.875 0
0.5 0.875 0
0.375 1 0
0.5 1 0
0.25 0.875 0
0.375 0.875 0
0.25 1 0
0.375 1 0
0 0.75 0
0.125 0.75 0
0 0.875 0
0.125 0.875 0
0.125 0.75 0
0.25 0.75 0
0.125 0.875 0
0.25 0.875 0
0.125 0.875 0
0.25 0.875 0
0.125 1 0
0.25 1 0
0 0.875 0
0.125 0.875 0
0 1 0
0.125 1 0
1 0 0
1.125 0 0
1 0.125 0
1.125 0.125 0
1.125 0 0
1.25 0 0
1.125 0.125 0
1.25 0.125 0
1.125 0.125 0
1.25 0.125 0
1.125 0.25 0
1.25 0.25 0
1 0.125 0
1.125 0.125 0
1 0.25 0
1.125 0.25 0
1.25 0 0
1.375 0 0
1.25 0.125 0
1.375 0.125 0
1.375 0 0
1.5 0 0
1.375 0.125 0
1.5 0.125 0
1.375 0.125 0
1.5 0.125 0
1.375 0.25 0
1.5 0.25 0
1.25 0.125 0
1.375 0.125 0
1.25 0.25 0
1.375 0.25 0
1.25 0.25 0
1.375 0.25 0
1.25 0.375 0
1.375 0.375 0
1.375 0.25 0
1.5 0.25 0
1.375 0.375 0
1.5 0.375 0
1.375 0.375 0
1.5 0.375 0
1.375 0.5 0
1.5 0.5 0
1.25 0.375 0
1.375 0.375 0
1.25 0.5 0
1.375 0.5 0
1 0.25 0
1.125 0.25 0
1 0.375 0
1.125 0.375 0
1.125 0.25 0
1.25 0.25 0
1.125 0.375 0
1.25 0.375 0
1.125 0.375 0
1.25 0.375 0
1.125 0.5 0
1.25 0.5 0
1 0.375 0
1.125 0.375 0
1 0.5 0
1.125 0.5 0
1.5 0 0
1.625 0 0
1.5 0.125 0
1.625 0.125 0
1.625 0 0
1.75 0 0
1.625 0.125 0
1.75 0.125 0
1.625 0.125 0
1.75 0.125 0
1.625 0.25 0
1.75 0.25 0
1.5 0.125 0
1.625 0.125 0
1.5 0.25 0
1.625 0.25 0
1.75 0 0
1.875 0 0
1.75 0.125 0
1.875 0.125 0
1.875 0 0
2 0 0
1.875 0.125 0
2 0.125 0
1.875 0.125 0
2 0.125 0
1.875 0.25 0
2 0.25 0
1.75 0.125 0
1.875 0.125 0
1.75 0.25 0
1.875 0.25 0
1.75 0.25 0
1.875 0.25 0
1.75 0.375 0
1.875 0.375 0
1.875 0.25 0
2 0.25 0
1.875 0.375 0
2 0.375 0
1.875 0.375 0
2 0.375 0
1.875 0.5 0
2 0.5 0
1.75 0.375 0
1.875 0.375 0
1.75 0.5 0
1.875 0.5 0
1.5 0.25 0
1.625 0.25 0
1.5 0.375 0
1.625 0.375 0
1.625 0.25 0
1.75 0.25 0
1.625 0.375 0
1.75 0.375 0
1.625 0.375 0
1.75 0.375 0
1.625 0.5 0
1.75 0.5 0
1.5 0.375 0
1.625 0.375 0
1.5 0.5 0
1.625 0.5 0
1.5 0.5 0
1.625 0.5 0
1.5 0.625 0
1.625 0.625 0
1.625 0.5 0
1.75 0.5 0
1.625 0.625 0
1.75 0.625 0
1.625 0.625 0
1.75 0.625 0
1.625 0.75 0
1.75 0.75 0
1.5 0.625 0
1.625 0.625 0
1.5 0.75 0
1.625 0.75 0
1.75 0.5 0
1.875 0.5 0
1.75 0.625 0
1.875 0.625 0
1.875 0.5 0
2 0.5 0
1.875 0.625 0
2 0.625 0
1.875 0.625 0
2 0.625 0
1.875 0.75 0
2 0.75 0
1.75 0.625 0
1.875 0.625 0
1.75 0.75 0
1.875 0.75 0
1.75 0.75 0
1.875 0.75 0
1.75 0.875 0
1.875 0.875 0
1.875 0.75 0
2 0.75 0
1.875 0.875 0
2 0.875 0
1.875 0.875 0
2 0.875 0
1.875 1 0
2 1 0
1.75 0.875 0
1.875 0.875 0
1.75 1 0
1.875 1 0
1.5 0.75 0
1.625 0.75 0
1.5 0.875 0
1.625 0.875 0
1.625 0.75 0
1.75 0.75 0
1.625 0.875 0
1.75 0.875 0
1.625 0.875 0
1.75 0.875 0
1.625 1 0
1.75 1 0
1.5 0.875 0
1.625 0.875 0
1.5 1 0
1.625 1 0
1 0.5 0
1.125 0.5 0
1 0.625 0
1.125 0.625 0
1.125 0.5 0
1.25 0.5 0
1.125 0.625 0
1.25 0.625 0
1.125 0.625 0
1.25 0.625 0
1.125 0.75 0
1.25 0.75 0
1 0.625 0
1.125 0.625 0
1 0.75 0
1.125 0.75 0
1.25 0.5 0
1.375 0.5 0
1.25 0.625 0
1.375 0.625 0
1.375 0.5 0
1.5 0.5 0
1.375 0.625 0
1.5 0.625 0
1.375 0.625 0
1.5 0.625 0
1.375 0.75 0
1.5 0.75 0
1.25 0.625 0
1.375 0.625 0
1.25 0.75 0
1.375 0.75 0
1.25 0.75 0
1.375 0.75 0
1.25 0.875 0
1.375 0.875 0
1.375 0.75 0
1.5 0.75 0
1.375 0.875 0
1.5 0.875 0
1.375 0.875 0
1.5 0.875 0
1.375 1 0
1.5 1 0
1.25 0.875 0
1.375 0.875 0
1.25 1 0
1.375 1 0
1 0.75 0
1.125 0.75 0
1 0.875 0
1.125 0.875 0
1.125 0.75 0
1.25 0.75 0
1.125 0.875 0
1.25 0.875 0
1.125 0.875 0
1.25 0.875 0
1.125 1 0
1.25 1 0
1 0.875 0
1.125 0.875 0
1 1 0
1.125 1 0
2 0 0
2.125 0 0
2 0.125 0
2.125 0.125 0
2.125 0 0
2.25 0 0
2.125 0.125 0
2.25 0.125 0
2.125 0.125 0
2.25 0.125 0
2.125 0.25 0
2.25 0.25 0
2 0.125 0
2.125 0.125 0
2 0.25 0
2.125 0.25 0
2.25 0 0
2.375 0 0
2.25 0.125 0
2.375 0.125 0
2.375 0 0
2.5 0 0
2.375 0.125 0
2.5 0.125 0
2.375 0.125 0
2.5 0.125 0
2.375 0.25 0
2.5 0.25 0
2.25 0.125 0
2.375 0.125 0
2.25 0.25 0
2.375 0.25 0
2.25 0.25 0
2.375 0.25 0
2.25 0.375 0
2.375 0.375 0
2.375 0.25 0
2.5 0.25 0
2.375 0.375 0
2.5 0.375 0
2.375 0.375 0
2.5 0.375 0
2.375 0.5 0
2.5 0.5 0
2.25 0.375 0
2.375 0.375 0
2.25 0.5 0
2.375 0.5 0
2 0.25 0
2.125 0.25 0
2 0.375 0
2.125 0.375 0
2.125 0.25 0
2.25 0.25 0
2.125 0.375 0
2.25 0.375 0
2.125 0.375 0
2.25 0.375 0
2.125 0.5 0
2.25 0.5 0
2 0.375 0
2.125 0.375 0
2 0.5 0
2.125 0.5 0
2.5 0 0
2.625 0 0
2.5 0.125 0
2.625 0.125 0
2.625 0 0
2.75 0 0
2.625 0.125 0
2.75 0.125 0
2.625 0.125 0
2.75 0.125 0
2.625 0.25 0
2.75 0.25 0
2.5 0.125 0
2.625 0.125 0
2.5 0.25 0
2.625 0.25 0
2.75 0 0
2.875 0 0
2.75 0.125 0
2.875 0.125 0
2.875 0 0
3 0 0
2.875 0.125 0
3 0.125 0
2.875 0.125 0
3 0.125 0
2.875 0.25 0
3 0.25 0
2.75 0.125 0
2.875 0.125 0
2.75 0.25 0
2.875 0.25 0
2.75 0.25 0
2.875 0.25 0
2.75 0.375 0
2.875 0.375 0
2.875 0.25 0
3 0.25 0
2.875 0.375 0
3 0.375 0
2.875 0.375 0
3 0.375 0
2.875 0.5 0
3 0.5 0
2.75 0.375 0
2.875 0.375 0
2.75 0.5 0
2.875 0.5 0
2.5 0.25 0
2.625 0.25 0
2.5 0.375 0
2.625 0.375 0
2.625 0.25 0
2.75 0.25 0
2.625 0.375 0
2.75 0.375 0
2.625 0.375 0
2.75 0.375 0
2.625 0.5 0
2.75 0.5 0
2.5 0.375 0
2.625 0.375 0
2.5 0.5 0
2.625 0.5 0
2.5 0.5 0
2.625 0.5 0
2.5 0.625 0
2.625 0.625 0
2.625 0.5 0
2.75 0.5 0
2.625 0.625 0
2.75 0.625 0
2.625 0.625 0
2.75 0.625 0
2.625 0.75 0
2.75 0.75 0
2.5 0.625 0
2.625 0.625 0
2.5 0.75 0
2.625 0.75 0
2.75 0.5 0
2.875 0.5 0
2.75 0.625 0
2.875 0.625 0
2.875 0.5 0
3 0.5 0
2.875 0.625 0
3 0.625 0
2.875 0.625 0
3 0.625 0
2.875 0.75 0
3 0.75 0
2.75 0.625 0
2.875 0.625 0
2.75 0.75 0
2.875 0.75 0
2.75 0.75 0
2.875 0.75 0
2.75 0.875 0
2.875 0.875 0
2.875 0.75 0
3 0.75 0
2.875 0.875 0
3 0.875 0
2.875 0.875 0
3 0.875 0
2.875 1 0
3 1 0
2.75 0.875 0
2.875 0.875 0
2.75 1 0
2.875 1 0
2.5 0.75 0
2.625 0.75 0
2.5 0.875 0
2.625 0.875 0
2.625 0.75 0
2.75 0.75 0
2.625 0.875 0
2.75 0.875 0
2.625 0.875 0
2.75 0.875 0
2.625 1 0
2.75 1 0
2.5 0.875 0
2.625 0.875 0
2.5 1 0
2.625 1 0
2 0.5 0
2.125 0.5 0
2 0.625 0
2.125 0.625 0
2.125 0.5 0
2.25 0.5 0
2.125 0.625 0
2.25 0.625 0
2.125 0.625 0
2.25 0.625 0
2.125 0.75 0
2.25 0.75 0
2 0.625 0
2.125 0.625 0
2 0.75 0
2.125 0.75 0
2.25 0.5 0
2.375 0.5 0
2.25 0.625 0
2.375 0.625 0
2.375 0.5 0
2.5 0.5 0
2.375 0.625 0
2.5 0.625 0
2.375 0.625 0
2.5 0.625 0
2.375 0.75 0
2.5 0.75 0
2.25 0.625 0
2.375 0.625 0
2.25 0.75 0
2.375 0.75 0
2.25 0.75 0
2.375 0.75 0
2.25 0.875 0
2.375 0.875 0
2.375 0.75 0
2.5 0.75 0
2.375 0.875 0
2.5 0.875 0
2.375 0.875 0
2.5 0.875 0
2.375 1 0
2.5 1 0
2.25 0.875 0
2.375 0.875 0
2.25 1 0
2.375 1 0
2 0.75 0
2.125 0.75 0
2 0.875 0
2.125 0.875 0
2.125 0.75 0
2.25 0.75 0
2.125 0.875 0
2.25 0.875 0
2.125 0.875 0
2.25 0.875 0
2.125 1 0
2.25 1 0
2 0.875 0
2.125 0.875 0
2 1 0
2.125 1 0
3 0 0
3.125 0 0
3 0.125 0
3.125 0.125 0
3.125 0 0
3.25 0 0
3.125 0.125 0
3.25 0.125 0
3.125 0.125 0
3.25 0.125 0
3.125 0.25 0
3.25 0.25 0
3 0.125 0
3.125 0.125 0
3 0.25 0
3.125 0.25 0
3.25 0 0
3.375 0 0
3.25 0.125 0
3.375 0.125 0
3.375 0 0
3.5 0 0
3.375 0.125 0
3.5 0.125 0
3.375 0.125 0
3.5 0.125 0
3.375 0.25 0
3.5 0.25 0
3.25 0.125 0
3.375 0.125 0
3.25 0.25 0
3.375 0.25 0
3.25 0.25 0
3.375 0.25 0
3.25 0.375 0
3.375 0.375 0
3.375 0.25 0
3.5 0.25 0
3.375 0.375 0
3.5 0.375 0
3.375 0.375 0
3.5 0.375 0
3.375 0.5 0
3.5 0.5 0
3.25 0.375 0
3.375 0.375 0
3.25 0.5 0
[...]
<CellData Scalars="attribute">
<DataArray type="Int32" Name="attribute" format="ascii">
1
1
1
1
1
1
1
1
1
1
1
1
1
1
1
1
1
1
1
1
1
1
1
1
1
1
1
1
1
1
1
1
1
1
1
1
1
1
1
1
1
1
1
1
1
1
1
1
1
1
1
1
1
1
1
1
1
1
1
1
1
1
1
1
1
1
1
1
1
1
1
1
1
1
1
1
1
1
1
1
1
1
1
1
1
1
1
1
1
1
1
1
1
1
1
1
1
1
1
1
1
1
1
1
1
1
1
1
1
1
1
1
1
1
1
1
1
1
1
1
1
1
1
1
1
1
1
1
1
1
1
1
1
1
1
1
1
1
1
1
1
1
1
1
1
1
1
1
1
1
1
1
1
1
1
1
1
1
1
1
1
1
1
1
1
1
1
1
1
1
1
1
1
1
1
1
1
1
1
1
1
1
1
1
1
1
1
1
1
1
1
1
1
1
1
1
1
1
1
1
1
1
1
1
1
1
1
1
1
1
1
1
1
1
1
1
1
1
1
1
1
1
1
1
1
1
1
1
1
1
1
1
1
1
1
1
1
1
1
1
1
1
1
1
1
1
1
1
1
1
1
1
1
1
1
1
2
2
2
2
2
2
2
2
2
2
2
2
2
2
2
2
2
2
2
2
2
2
2
2
2
2
2
2
2
2
2
2
2
2
2
2
2
2
2
2
2
2
2
2
2
2
2
2
2
2
2
2
2
2
2
2
2
2
2
2
2
2
2
2
2
2
2
2
2
2
2
2
2
2
2
2
2
2
2
2
2
2
2
2
2
2
2
2
2
2
2
2
2
2
2
2
2
2
2
2
2
2
2
2
2
2
2
2
2
2
2
2
2
2
2
2
2
2
2
2
2
2
2
2
2
2
2
2
2
2
2
2
2
2
2
2
2
2
2
2
2
2
2
2
2
2
2
2
2
2
2
2
2
2
2
2
2
2
2
2
2
2
2
2
2
2
2
2
2
2
2
2
2
2
2
2
2
2
2
2
2
2
2
2
2
2
2
2
2
2
2
2
2
2
2
2
2
2
2
2
2
2
2
2
2
2
2
2
2
2
2
2
2
2
2
2
2
2
2
2
2
2
2
2
2
2
2
2
2
2
2
2
2
2
2
2
2
2
2
2
2
2
2
2
2
2
2
2
2
2
2
2
2
2
2
2
</DataArray>
</CellData>
<PointData >
<DataArray type="Float64" Name="Pressure" NumberOfComponents="1" format="ascii" >
-0.00103364
-2.31797e-06
-0.00169148
-3.83719e-06
-2.31797e-06
2.02163e-10
-3.83719e-06
3.50112e-10
-3.83719e-06
3.50112e-10
-2.5761e-06
2.37758e-10
-0.00169148
-3.83719e-06
-0.00112768
-2.5761e-06
2.02163e-10
-1.10642e-14
3.50112e-10
-1.97567e-14
-1.10642e-14
6.12082e-19
-1.97567e-14
1.1332e-18
-1.97567e-14
1.1332e-18
-1.37573e-14
8.10491e-19
3.50112e-10
-1.97567e-14
2.37758e-10
-1.37573e-14
2.37758e-10
-1.37573e-14
1.21845e-10
-7.02991e-15
-1.37573e-14
8.10491e-19
-7.02991e-15
4.14595e-19
-7.02991e-15
4.14595e-19
-2.32857e-16
1.31576e-20
1.21845e-10
-7.02991e-15
4.2999e-12
-2.32857e-16
-0.00112768
-2.5761e-06
-0.000563864
-1.30813e-06
-2.5761e-06
2.37758e-10
-1.30813e-06
1.21845e-10
-1.30813e-06
1.21845e-10
-2.89769e-08
4.2999e-12
-0.000563864
-1.30813e-06
-3.56494e-08
-2.89769e-08
6.12082e-19
-1.75196e-23
1.1332e-18
-3.362e-23
-1.75196e-23
8.71735e-28
-3.362e-23
1.68191e-27
-3.362e-23
1.68191e-27
-2.49105e-23
1.26393e-27
1.1332e-18
-3.362e-23
8.10491e-19
-2.49105e-23
8.71735e-28
-1.05353e-32
1.68191e-27
-2.24272e-32
-1.05353e-32
8.08833e-37
-2.24272e-32
1.58373e-36
-2.24272e-32
1.58373e-36
-1.81427e-32
1.22647e-36
1.68191e-27
-2.24272e-32
1.26393e-27
-1.81427e-32
1.26393e-27
-1.81427e-32
6.57119e-28
-9.5671e-33
-1.81427e-32
1.22647e-36
-9.5671e-33
6.51341e-37
-9.5671e-33
6.51341e-37
-2.76002e-34
1.6585e-38
6.57119e-28
-9.5671e-33
1.88518e-29
-2.76002e-34
8.10491e-19
-2.49105e-23
4.14595e-19
-1.28211e-23
-2.49105e-23
1.26393e-27
-1.28211e-23
6.57119e-28
-1.28211e-23
6.57119e-28
-3.91769e-25
1.88518e-29
4.14595e-19
-1.28211e-23
1.31576e-20
-3.91769e-25
1.31576e-20
-3.91769e-25
-3.93881e-19
1.22105e-23
-3.91769e-25
1.88518e-29
1.22105e-23
-6.28359e-28
1.22105e-23
-6.28359e-28
2.48212e-23
-1.26059e-27
-3.93881e-19
1.22105e-23
-8.06681e-19
2.48212e-23
1.88518e-29
-2.76002e-34
-6.28359e-28
9.14894e-33
-2.76002e-34
1.6585e-38
9.14894e-33
-6.26753e-37
9.14894e-33
-6.26753e-37
1.80937e-32
-1.22448e-36
-6.28359e-28
9.14894e-33
-1.26059e-27
1.80937e-32
-1.26059e-27
1.80937e-32
-1.70876e-27
2.2769e-32
1.80937e-32
-1.22448e-36
2.2769e-32
-1.60589e-36
2.2769e-32
-1.60589e-36
1.07654e-32
-8.2449e-37
-1.70876e-27
2.2769e-32
-8.9136e-28
1.07654e-32
-8.06681e-19
2.48212e-23
-1.15341e-18
3.41925e-23
2.48212e-23
-1.26059e-27
3.41925e-23
-1.70876e-27
3.41925e-23
-1.70876e-27
1.79451e-23
-8.9136e-28
-1.15341e-18
3.41925e-23
-6.28183e-19
1.79451e-23
-3.56494e-08
-2.89769e-08
0.000563806
1.26137e-06
-2.89769e-08
4.2999e-12
1.26137e-06
-1.14921e-10
1.26137e-06
-1.14921e-10
2.5629e-06
-2.35855e-10
0.000563806
1.26137e-06
0.00112766
2.5629e-06
4.2999e-12
-2.32857e-16
-1.14921e-10
6.65869e-15
-2.32857e-16
1.31576e-20
6.65869e-15
-3.93881e-19
6.65869e-15
-3.93881e-19
1.36709e-14
-8.06681e-19
-1.14921e-10
6.65869e-15
-2.35855e-10
1.36709e-14
-2.35855e-10
1.36709e-14
-3.56597e-10
2.01246e-14
1.36709e-14
-8.06681e-19
2.01246e-14
-1.15341e-18
2.01246e-14
-1.15341e-18
1.13774e-14
-6.28183e-19
-3.56597e-10
2.01246e-14
-2.08804e-10
1.13774e-14
0.00112766
2.5629e-06
0.00169154
3.88038e-06
2.5629e-06
-2.35855e-10
3.88038e-06
-3.56597e-10
3.88038e-06
-3.56597e-10
2.36373e-06
-2.08804e-10
0.00169154
3.88038e-06
0.0010337
2.36373e-06
8.08833e-37
1.71821e-42
1.58373e-36
6.98933e-43
1.71821e-42
5.91475e-46
6.98933e-43
1.14772e-45
6.98933e-43
1.14772e-45
-1.01171e-42
8.95693e-46
1.58373e-36
6.98933e-43
1.22647e-36
-1.01171e-42
5.91475e-46
7.57413e-51
1.14772e-45
1.2824e-50
7.57413e-51
3.64567e-55
1.2824e-50
6.94678e-55
1.2824e-50
6.94678e-55
8.8553e-51
5.3918e-55
1.14772e-45
1.2824e-50
8.95693e-46
8.8553e-51
8.95693e-46
8.8553e-51
4.82733e-46
4.61632e-51
8.8553e-51
5.3918e-55
4.61632e-51
2.92346e-55
4.61632e-51
2.92346e-55
7.76766e-53
5.5602e-57
4.82733e-46
4.61632e-51
1.06941e-47
7.76766e-53
1.22647e-36
-1.01171e-42
6.51341e-37
-6.97709e-43
-1.01171e-42
8.95693e-46
-6.97709e-43
4.82733e-46
-6.97709e-43
4.82733e-46
-4.06507e-44
1.06941e-47
6.51341e-37
-6.97709e-43
1.6585e-38
-4.06507e-44
3.64567e-55
6.55736e-60
6.94678e-55
1.1756e-59
6.55736e-60
1.86241e-64
1.1756e-59
3.49786e-64
1.1756e-59
3.49786e-64
8.63803e-60
2.69627e-64
6.94678e-55
1.1756e-59
5.3918e-55
8.63803e-60
1.86241e-64
3.52932e-69
3.49786e-64
6.44452e-69
3.52932e-69
7.68463e-74
6.44452e-69
1.43144e-73
6.44452e-69
1.43144e-73
4.84131e-69
1.09921e-73
3.49786e-64
6.44452e-69
2.69627e-64
4.84131e-69
2.69627e-64
4.84131e-69
1.46393e-64
2.60289e-69
4.84131e-69
1.09921e-73
2.60289e-69
5.96944e-74
2.60289e-69
5.96944e-74
3.74376e-71
8.36128e-76
1.46393e-64
2.60289e-69
2.38455e-66
3.74376e-71
5.3918e-55
8.63803e-60
2.92346e-55
4.59961e-60
8.63803e-60
2.69627e-64
4.59961e-60
1.46393e-64
4.59961e-60
1.46393e-64
7.39217e-62
2.38455e-66
2.92346e-55
4.59961e-60
5.5602e-57
7.39217e-62
5.5602e-57
7.39217e-62
-2.84343e-55
-4.49501e-60
7.39217e-62
2.38455e-66
-4.49501e-60
-1.42985e-64
-4.49501e-60
-1.42985e-64
-8.64083e-60
-2.69533e-64
-2.84343e-55
-4.49501e-60
-5.38841e-55
-8.64083e-60
2.38455e-66
3.74376e-71
-1.42985e-64
-2.54994e-69
3.74376e-71
8.36128e-76
-2.54994e-69
-5.85047e-74
-2.54994e-69
-5.85047e-74
-4.84206e-69
-1.09901e-73
-1.42985e-64
-2.54994e-69
-2.69533e-64
-4.84206e-69
-2.69533e-64
-4.84206e-69
-3.53004e-64
-6.50032e-69
-4.84206e-69
-1.09901e-73
-6.50032e-69
-1.44294e-73
-6.50032e-69
-1.44294e-73
-3.56909e-69
-7.76616e-74
-3.53004e-64
-6.50032e-69
-1.88521e-64
-3.56909e-69
-5.38841e-55
-8.64083e-60
-7.02015e-55
-1.18725e-59
-8.64083e-60
-2.69533e-64
-1.18725e-59
-3.53004e-64
-1.18725e-59
-3.53004e-64
-6.64147e-60
-1.88521e-64
-7.02015e-55
-1.18725e-59
-3.69745e-55
-6.64147e-60
1.6585e-38
-4.06507e-44
-6.26753e-37
6.3403e-43
-4.06507e-44
1.06941e-47
6.3403e-43
-4.67168e-46
6.3403e-43
-4.67168e-46
9.91098e-43
-8.94765e-46
-6.26753e-37
6.3403e-43
-1.22448e-36
9.91098e-43
1.06941e-47
7.76766e-53
-4.67168e-46
-4.50692e-51
7.76766e-53
5.5602e-57
-4.50692e-51
-2.84343e-55
-4.50692e-51
-2.84343e-55
-8.86344e-51
-5.38841e-55
-4.67168e-46
-4.50692e-51
-8.94765e-46
-8.86344e-51
-8.94765e-46
-8.86344e-51
-1.16168e-45
-1.29687e-50
-8.86344e-51
-5.38841e-55
-1.29687e-50
-7.02015e-55
-1.29687e-50
-7.02015e-55
-7.68275e-51
-3.69745e-55
-1.16168e-45
-1.29687e-50
-6.0128e-46
-7.68275e-51
-1.22448e-36
9.91098e-43
-1.60589e-36
-7.03422e-43
9.91098e-43
-8.94765e-46
-7.03422e-43
-1.16168e-45
-7.03422e-43
-1.16168e-45
-1.73555e-42
-6.0128e-46
-1.60589e-36
-7.03422e-43
-8.2449e-37
-1.73555e-42
7.68463e-74
1.38454e-78
1.43144e-73
2.54674e-78
1.38454e-78
2.54471e-83
2.54674e-78
4.72082e-83
2.54674e-78
4.72082e-83
1.93345e-78
3.62084e-83
1.43144e-73
2.54674e-78
1.09921e-73
1.93345e-78
2.54471e-83
4.21221e-88
4.72082e-83
7.77123e-88
4.21221e-88
6.81306e-93
7.77123e-88
1.26144e-92
7.77123e-88
1.26144e-92
5.93257e-88
9.6766e-93
4.72082e-83
7.77123e-88
3.62084e-83
5.93257e-88
3.62084e-83
5.93257e-88
1.9668e-83
3.21558e-88
5.93257e-88
9.6766e-93
3.21558e-88
5.25789e-93
3.21558e-88
5.25789e-93
3.57586e-90
5.52397e-95
1.9668e-83
3.21558e-88
2.38111e-85
3.57586e-90
1.09921e-73
1.93345e-78
5.96944e-74
1.04495e-78
1.93345e-78
3.62084e-83
1.04495e-78
1.9668e-83
1.04495e-78
1.9668e-83
1.32522e-80
2.38111e-85
5.96944e-74
1.04495e-78
8.36128e-76
1.32522e-80
6.81306e-93
1.02774e-97
1.26144e-92
1.89825e-97
1.02774e-97
1.4935e-102
1.89825e-97
2.76242e-102
1.89825e-97
2.76242e-102
1.45364e-97
2.1204e-102
1.26144e-92
1.89825e-97
9.6766e-93
1.45364e-97
1.4935e-102
2.05576e-107
2.76242e-102
3.7982e-107
2.05576e-107
2.71643e-112
3.7982e-107
5.02134e-112
3.7982e-107
5.02134e-112
2.91398e-107
3.85704e-112
2.76242e-102
3.7982e-107
2.1204e-102
2.91398e-107
2.1204e-102
2.91398e-107
1.15249e-102
1.58328e-107
2.91398e-107
3.85704e-112
1.58328e-107
2.09684e-112
1.58328e-107
2.09684e-112
1.34621e-109
1.67094e-114
1.15249e-102
1.58328e-107
1.05359e-104
1.34621e-109
9.6766e-93
1.45364e-97
5.25789e-93
7.89151e-98
1.45364e-97
2.1204e-102
7.89151e-98
1.15249e-102
7.89151e-98
1.15249e-102
7.67708e-100
1.05359e-104
5.25789e-93
7.89151e-98
5.52397e-95
7.67708e-100
5.52397e-95
7.67708e-100
-5.17962e-93
-7.78296e-98
7.67708e-100
1.05359e-104
-7.78296e-98
-1.13757e-102
-7.78296e-98
-1.13757e-102
-1.45366e-97
-2.12034e-102
-5.17962e-93
-7.78296e-98
-9.67617e-93
-1.45366e-97
1.05359e-104
1.34621e-109
-1.13757e-102
-1.56424e-107
1.34621e-109
1.67094e-114
-1.56424e-107
-2.07319e-112
-1.56424e-107
-2.07319e-112
-2.91398e-107
-3.85696e-112
-1.13757e-102
-1.56424e-107
-2.12034e-102
-2.91398e-107
-2.12034e-102
-2.91398e-107
-2.77718e-102
-3.81718e-107
-2.91398e-107
-3.85696e-112
-3.81718e-107
-5.04475e-112
-3.81718e-107
-5.04475e-112
-2.0692e-107
-2.733e-112
-2.77718e-102
-3.81718e-107
-1.50396e-102
-2.0692e-107
-9.67617e-93
-1.45366e-97
-1.26916e-92
-1.90913e-97
-1.45366e-97
-2.12034e-102
-1.90913e-97
-2.77718e-102
-1.90913e-97
-2.77718e-102
-1.03544e-97
-1.50396e-102
-1.26916e-92
-1.90913e-97
-6.8678e-93
-1.03544e-97
8.36128e-76
1.32522e-80
-5.85047e-74
-1.02621e-78
1.32522e-80
2.38111e-85
-1.02621e-78
-1.93301e-83
-1.02621e-78
-1.93301e-83
-1.9336e-78
-3.62052e-83
-5.85047e-74
-1.02621e-78
-1.09901e-73
-1.9336e-78
2.38111e-85
3.57586e-90
-1.93301e-83
-3.16503e-88
3.57586e-90
5.52397e-95
-3.16503e-88
-5.17962e-93
-3.16503e-88
-5.17962e-93
-5.93279e-88
-9.67617e-93
-1.93301e-83
-3.16503e-88
-3.62052e-83
-5.93279e-88
-3.62052e-83
-5.93279e-88
-4.75392e-83
-7.82234e-88
-5.93279e-88
-9.67617e-93
-7.82234e-88
-1.26916e-92
-7.82234e-88
-1.26916e-92
-4.24841e-88
-6.8678e-93
-4.75392e-83
-7.82234e-88
-2.56818e-83
-4.24841e-88
-1.09901e-73
-1.9336e-78
-1.44294e-73
-2.56596e-78
-1.9336e-78
-3.62052e-83
-2.56596e-78
-4.75392e-83
-2.56596e-78
-4.75392e-83
-1.39817e-78
-2.56818e-83
-1.44294e-73
-2.56596e-78
-7.76616e-74
-1.39817e-78
2.71643e-112
3.42641e-117
5.02134e-112
6.3303e-117
3.42641e-117
4.1503e-122
6.3303e-117
7.66857e-122
6.3303e-117
7.66857e-122
4.86232e-117
5.89417e-122
5.02134e-112
6.3303e-117
3.85704e-112
4.86232e-117
4.1503e-122
4.82064e-127
7.66857e-122
8.90438e-127
4.82064e-127
5.38529e-132
8.90438e-127
9.947e-132
8.90438e-127
9.947e-132
6.84486e-127
7.64935e-132
7.66857e-122
8.90438e-127
5.89417e-122
6.84486e-127
5.89417e-122
6.84486e-127
3.20468e-122
3.72136e-127
6.84486e-127
7.64935e-132
3.72136e-127
4.15913e-132
3.72136e-127
4.15913e-132
2.41625e-129
2.52641e-134
3.20468e-122
3.72136e-127
2.2287e-124
2.41625e-129
3.85704e-112
4.86232e-117
2.09684e-112
2.64301e-117
4.86232e-117
5.89417e-122
2.64301e-117
3.20468e-122
2.64301e-117
3.20468e-122
1.96369e-119
2.2287e-124
2.09684e-112
2.64301e-117
1.67094e-114
1.96369e-119
5.38529e-132
5.78683e-137
9.947e-132
1.06864e-136
5.78683e-137
5.99184e-142
1.06864e-136
1.10639e-141
1.06864e-136
1.10639e-141
8.21923e-137
8.51176e-142
9.947e-132
1.06864e-136
7.64935e-132
8.21923e-137
5.99184e-142
5.98182e-147
1.10639e-141
1.10436e-146
5.98182e-147
5.76481e-152
1.10436e-146
1.06417e-151
1.10436e-146
1.06417e-151
8.49736e-147
8.18958e-152
1.10639e-141
1.10436e-146
8.51176e-142
8.49736e-147
8.51176e-142
8.49736e-147
4.62793e-142
4.6199e-147
8.49736e-147
8.18958e-152
4.6199e-147
4.45247e-152
4.6199e-147
4.45247e-152
2.29297e-149
2.06715e-154
4.62793e-142
4.6199e-147
2.457e-144
2.29297e-149
7.64935e-132
8.21923e-137
4.15913e-132
4.4688e-137
8.21923e-137
8.51176e-142
4.4688e-137
4.62793e-142
4.4688e-137
4.62793e-142
2.5364e-139
2.457e-144
4.15913e-132
4.4688e-137
2.52641e-134
2.5364e-139
2.52641e-134
2.5364e-139
-4.12335e-132
-4.43288e-137
2.5364e-139
2.457e-144
-4.43288e-137
-4.59312e-142
-4.43288e-137
-4.59312e-142
-8.21903e-137
-8.51152e-142
-4.12335e-132
-4.43288e-137
-7.64916e-132
-8.21903e-137
2.457e-144
2.29297e-149
-4.59312e-142
-4.5874e-147
2.29297e-149
2.06715e-154
-4.5874e-147
-4.42317e-152
-4.5874e-147
-4.42317e-152
-8.49711e-147
-8.18932e-152
-4.59312e-142
-4.5874e-147
-8.51152e-142
-8.49711e-147
-8.51152e-142
-8.49711e-147
-1.10981e-141
-1.10755e-146
-8.49711e-147
-8.18932e-152
-1.10755e-146
-1.06704e-151
-1.10755e-146
-1.06704e-151
-6.00439e-147
-5.78511e-152
-1.10981e-141
-1.10755e-146
-6.01606e-142
-6.00439e-147
-7.64916e-132
-8.21903e-137
-9.98226e-132
-1.07218e-136
-8.21903e-137
-8.51152e-142
-1.07218e-136
-1.10981e-141
-1.07218e-136
-1.10981e-141
-5.81188e-137
-6.01606e-142
-9.98226e-132
-1.07218e-136
-5.41026e-132
-5.81188e-137
1.67094e-114
1.96369e-119
-2.07319e-112
-2.61522e-117
1.96369e-119
2.2287e-124
-2.61522e-117
-3.17313e-122
-2.61522e-117
-3.17313e-122
-4.86226e-117
-5.89404e-122
-2.07319e-112
-2.61522e-117
-3.85696e-112
-4.86226e-117
2.2287e-124
2.41625e-129
-3.17313e-122
-3.68716e-127
2.41625e-129
2.52641e-134
-3.68716e-127
-4.12335e-132
-3.68716e-127
-4.12335e-132
-6.84473e-127
-7.64916e-132
-3.17313e-122
-3.68716e-127
-5.89404e-122
-6.84473e-127
-5.89404e-122
-6.84473e-127
-7.69975e-122
-8.9382e-127
-6.84473e-127
-7.64916e-132
-8.9382e-127
-9.98226e-132
-8.9382e-127
-9.98226e-132
-4.84458e-127
-5.41026e-132
-7.69975e-122
-8.9382e-127
-4.17237e-122
-4.84458e-127
-3.85696e-112
-4.86226e-117
-5.04475e-112
-6.35787e-117
-4.86226e-117
-5.89404e-122
-6.35787e-117
-7.69975e-122
-6.35787e-117
-7.69975e-122
-3.44594e-117
-4.17237e-122
-5.04475e-112
-6.35787e-117
-2.733e-112
-3.44594e-117
5.76481e-152
5.36703e-157
1.06417e-151
9.90607e-157
5.36703e-157
4.83158e-162
9.90607e-157
8.91674e-162
9.90607e-157
8.91674e-162
7.62438e-157
6.86381e-162
1.06417e-151
9.90607e-157
8.18958e-152
7.62438e-157
4.83158e-162
4.20887e-167
8.91674e-162
7.76659e-167
4.20887e-167
3.55061e-172
7.76659e-167
6.5512e-172
7.76659e-167
6.5512e-172
5.97906e-167
5.04389e-172
8.91674e-162
7.76659e-167
6.86381e-162
5.97906e-167
6.86381e-162
5.97906e-167
3.73136e-162
3.25022e-167
5.97906e-167
5.04389e-172
3.25022e-167
2.74173e-172
3.25022e-167
2.74173e-172
1.2351e-169
9.74906e-175
3.73136e-162
3.25022e-167
1.5157e-164
1.2351e-169
8.18958e-152
7.62438e-157
4.45247e-152
4.14499e-157
7.62438e-157
6.86381e-162
4.14499e-157
3.73136e-162
4.14499e-157
3.73136e-162
1.79972e-159
1.5157e-164
4.45247e-152
4.14499e-157
2.06715e-154
1.79972e-159
3.55061e-172
2.90266e-177
6.5512e-172
5.35508e-177
2.90266e-177
2.3011e-182
5.35508e-177
4.24486e-182
5.35508e-177
4.24486e-182
4.12331e-177
3.26871e-182
6.5512e-172
5.35508e-177
5.04389e-172
4.12331e-177
2.3011e-182
1.77008e-187
4.24486e-182
3.26496e-187
1.77008e-187
1.32197e-192
3.26496e-187
2.43821e-192
3.26496e-187
2.43821e-192
2.51432e-187
1.87775e-192
4.24486e-182
3.26496e-187
3.26871e-182
2.51432e-187
3.26871e-182
2.51432e-187
1.77661e-182
1.36651e-187
2.51432e-187
1.87775e-192
1.36651e-187
1.0205e-192
1.36651e-187
1.0205e-192
3.98348e-190
2.78502e-195
1.77661e-182
1.36651e-187
5.53284e-185
3.98348e-190
5.04389e-172
4.12331e-177
2.74173e-172
2.24121e-177
4.12331e-177
3.26871e-182
2.24121e-177
1.77661e-182
2.24121e-177
1.77661e-182
7.45743e-180
5.53284e-185
2.74173e-172
2.24121e-177
9.74906e-175
7.45743e-180
9.74906e-175
7.45743e-180
-2.72789e-172
-2.23062e-177
7.45743e-180
5.53284e-185
-2.23062e-177
-1.76875e-182
-2.23062e-177
-1.76875e-182
-4.12314e-177
-3.26858e-182
-2.72789e-172
-2.23062e-177
-5.04369e-172
-4.12314e-177
5.53284e-185
3.98348e-190
-1.76875e-182
-1.36085e-187
3.98348e-190
2.78502e-195
-1.36085e-187
-1.01653e-192
-1.36085e-187
-1.01653e-192
-2.51421e-187
-1.87767e-192
-1.76875e-182
-1.36085e-187
-3.26858e-182
-2.51421e-187
-3.26858e-182
-2.51421e-187
-4.25243e-182
-3.2704e-187
-2.51421e-187
-1.87767e-192
-3.2704e-187
-2.44199e-192
-3.2704e-187
-2.44199e-192
-1.77392e-187
-1.32466e-192
-4.25243e-182
-3.2704e-187
-2.30646e-182
-1.77392e-187
-5.04369e-172
-4.12314e-177
-6.5646e-172
-5.36531e-177
-4.12314e-177
-3.26858e-182
-5.36531e-177
-4.25243e-182
-5.36531e-177
-4.25243e-182
-2.9099e-177
-2.30646e-182
-6.5646e-172
-5.36531e-177
-3.5601e-172
-2.9099e-177
2.06715e-154
1.79972e-159
-4.42317e-152
-4.11947e-157
1.79972e-159
1.5157e-164
-4.11947e-157
-3.70985e-162
-4.11947e-157
-3.70985e-162
-7.62412e-157
-6.86356e-162
-4.42317e-152
-4.11947e-157
-8.18932e-152
-7.62412e-157
1.5157e-164
1.2351e-169
-3.70985e-162
-3.23269e-167
1.2351e-169
9.74906e-175
-3.23269e-167
-2.72789e-172
-3.23269e-167
-2.72789e-172
-5.97883e-167
-5.04369e-172
-3.70985e-162
-3.23269e-167
-6.86356e-162
-5.97883e-167
-6.86356e-162
-5.97883e-167
-8.93768e-162
-7.78361e-167
-5.97883e-167
-5.04369e-172
-7.78361e-167
-6.5646e-172
-7.78361e-167
-6.5646e-172
-4.22093e-167
-3.5601e-172
-8.93768e-162
-7.78361e-167
-4.84641e-162
-4.22093e-167
-8.18932e-152
-7.62412e-157
-1.06704e-151
-9.93099e-157
-7.62412e-157
-6.86356e-162
-9.93099e-157
-8.93768e-162
-9.93099e-157
-8.93768e-162
-5.38468e-157
-4.84641e-162
-1.06704e-151
-9.93099e-157
-5.78511e-152
-5.38468e-157
1.32197e-192
9.59114e-198
2.43821e-192
1.76881e-197
9.59114e-198
6.76339e-203
1.76881e-197
1.24721e-202
1.76881e-197
1.24721e-202
1.3623e-197
9.60622e-203
2.43821e-192
1.76881e-197
1.87775e-192
1.3623e-197
6.76339e-203
4.63792e-208
1.24721e-202
8.55197e-208
4.63792e-208
3.09424e-213
8.55197e-208
5.70514e-213
8.55197e-208
5.70514e-213
6.58716e-208
4.39457e-213
1.24721e-202
8.55197e-208
9.60622e-203
6.58716e-208
9.60622e-203
6.58716e-208
5.22017e-203
3.5794e-208
6.58716e-208
4.39457e-213
3.5794e-208
2.38787e-213
3.5794e-208
2.38787e-213
8.0227e-211
5.01382e-216
5.22017e-203
3.5794e-208
1.24918e-205
8.0227e-211
1.87775e-192
1.3623e-197
1.0205e-192
7.40327e-198
1.3623e-197
9.60622e-203
7.40327e-198
5.22017e-203
7.40327e-198
5.22017e-203
1.89176e-200
1.24918e-205
1.0205e-192
7.40327e-198
2.78502e-195
1.89176e-200
3.09424e-213
2.00934e-218
5.70514e-213
3.70457e-218
2.00934e-218
1.2706e-223
3.70457e-218
2.34242e-223
3.70457e-218
2.34242e-223
2.85366e-218
1.80445e-223
5.70514e-213
3.70457e-218
4.39457e-213
2.85366e-218
1.2706e-223
7.82705e-229
2.34242e-223
1.44287e-228
7.82705e-229
4.69882e-234
1.44287e-228
8.66154e-234
1.44287e-228
8.66154e-234
1.11153e-228
6.67269e-234
2.34242e-223
1.44287e-228
1.80445e-223
1.11153e-228
1.80445e-223
1.11153e-228
9.80404e-224
6.03901e-229
1.11153e-228
6.67269e-234
6.03901e-229
3.62518e-234
6.03901e-229
3.62518e-234
1.04369e-231
5.87406e-237
9.80404e-224
6.03901e-229
1.80762e-226
1.04369e-231
4.39457e-213
2.85366e-218
2.38787e-213
1.55053e-218
2.85366e-218
1.80445e-223
1.55053e-218
9.80404e-224
1.55053e-218
9.80404e-224
3.05046e-221
1.80762e-226
2.38787e-213
1.55053e-218
5.01382e-216
3.05046e-221
5.01382e-216
3.05046e-221
-2.38071e-213
-1.54617e-218
3.05046e-221
1.80762e-226
-1.54617e-218
-9.7782e-224
-1.54617e-218
-9.7782e-224
-2.85352e-218
-1.80436e-223
-2.38071e-213
-1.54617e-218
-4.39435e-213
-2.85352e-218
1.80762e-226
1.04369e-231
-9.7782e-224
-6.02407e-229
1.04369e-231
5.87406e-237
-6.02407e-229
-3.61676e-234
-6.02407e-229
-3.61676e-234
-1.11147e-228
-6.67234e-234
-9.7782e-224
-6.02407e-229
-1.80436e-223
-1.11147e-228
-1.80436e-223
-1.11147e-228
-2.34482e-223
-1.44425e-228
-1.11147e-228
-6.67234e-234
-1.44425e-228
-8.66926e-234
-1.44425e-228
-8.66926e-234
-7.83681e-229
-4.70428e-234
-2.34482e-223
-1.44425e-228
-1.2723e-223
-7.83681e-229
-4.39435e-213
-2.85352e-218
-5.71186e-213
-3.70863e-218
-2.85352e-218
-1.80436e-223
-3.70863e-218