<VTKFile type="UnstructuredGrid" version="0.1" byte_order="LittleEndian">
<UnstructuredGrid>
<Piece NumberOfPoints="2048" NumberOfCells="512">
<Points>
<DataArray type="Float64" NumberOfComponents="3" format="ascii">
0 0 0
0.125 0 0
0 0.125 0
0.125 0.125 0
0.125 0 0
0.25 0 0
0.125 0.125 0
0.25 0.125 0
0.125 0.125 0
0.25 0.125 0
0.125 0.25 0
0.25 0.25 0
0 0.125 0
0.125 0.125 0
0 0.25 0
0.125 0.25 0
0.25 0 0
0.375 0 0
0.25 0.125 0
0.375 0.125 0
0.375 0 0
0.5 0 0
0.375 0.125 0
0.5 0.125 0
0.375 0.125 0
0.5 0.125 0
0.375 0.25 0
0.5 0.25 0
0.25 0.125 0
0.375 0.125 0
0.25 0.25 0
0.375 0.25 0
0.25 0.25 0
0.375 0.25 0
0.25 0.375 0
0.375 0.375 0
0.375 0.25 0
0.5 0.25 0
0.375 0.375 0
0.5 0.375 0
0.375 0.375 0
0.5 0.375 0
0.375 0.5 0
0.5 0.5 0
0.25 0.375 0
0.375 0.375 0
0.25 0.5 0
0.375 0.5 0
0 0.25 0
0.125 0.25 0
0 0.375 0
0.125 0.375 0
0.125 0.25 0
0.25 0.25 0
0.125 0.375 0
0.25 0.375 0
0.125 0.375 0
0.25 0.375 0
0.125 0.5 0
0.25 0.5 0
0 0.375 0
0.125 0.375 0
0 0.5 0
0.125 0.5 0
0.5 0 0
0.625 0 0
0.5 0.125 0
0.625 0.125 0
0.625 0 0
0.75 0 0
0.625 0.125 0
0.75 0.125 0
0.625 0.125 0
0.75 0.125 0
0.625 0.25 0
0.75 0.25 0
0.5 0.125 0
0.625 0.125 0
0.5 0.25 0
0.625 0.25 0
0.75 0 0
0.875 0 0
0.75 0.125 0
0.875 0.125 0
0.875 0 0
1 0 0
0.875 0.125 0
1 0.125 0
0.875 0.125 0
1 0.125 0
0.875 0.25 0
1 0.25 0
0.75 0.125 0
0.875 0.125 0
0.75 0.25 0
0.875 0.25 0
0.75 0.25 0
0.875 0.25 0
0.75 0.375 0
0.875 0.375 0
0.875 0.25 0
1 0.25 0
0.875 0.375 0
1 0.375 0
0.875 0.375 0
1 0.375 0
0.875 0.5 0
1 0.5 0
0.75 0.375 0
0.875 0.375 0
0.75 0.5 0
0.875 0.5 0
0.5 0.25 0
0.625 0.25 0
0.5 0.375 0
0.625 0.375 0
0.625 0.25 0
0.75 0.25 0
0.625 0.375 0
0.75 0.375 0
0.625 0.375 0
0.75 0.375 0
0.625 0.5 0
0.75 0.5 0
0.5 0.375 0
0.625 0.375 0
0.5 0.5 0
0.625 0.5 0
0.5 0.5 0
0.625 0.5 0
0.5 0.625 0
0.625 0.625 0
0.625 0.5 0
0.75 0.5 0
0.625 0.625 0
0.75 0.625 0
0.625 0.625 0
0.75 0.625 0
0.625 0.75 0
0.75 0.75 0
0.5 0.625 0
0.625 0.625 0
0.5 0.75 0
0.625 0.75 0
0.75 0.5 0
0.875 0.5 0
0.75 0.625 0
0.875 0.625 0
0.875 0.5 0
1 0.5 0
0.875 0.625 0
1 0.625 0
0.875 0.625 0
1 0.625 0
0.875 0.75 0
1 0.75 0
0.75 0.625 0
0.875 0.625 0
0.75 0.75 0
0.875 0.75 0
0.75 0.75 0
0.875 0.75 0
0.75 0.875 0
0.875 0.875 0
0.875 0.75 0
1 0.75 0
0.875 0.875 0
1 0.875 0
0.875 0.875 0
1 0.875 0
0.875 1 0
1 1 0
0.75 0.875 0
0.875 0.875 0
0.75 1 0
0.875 1 0
0.5 0.75 0
0.625 0.75 0
0.5 0.875 0
0.625 0.875 0
0.625 0.75 0
0.75 0.75 0
0.625 0.875 0
0.75 0.875 0
0.625 0.875 0
0.75 0.875 0
0.625 1 0
0.75 1 0
0.5 0.875 0
0.625 0.875 0
0.5 1 0
0.625 1 0
0 0.5 0
0.125 0.5 0
0 0.625 0
0.125 0.625 0
0.125 0.5 0
0.25 0.5 0
0.125 0.625 0
0.25 0.625 0
0.125 0.625 0
0.25 0.625 0
0.125 0.75 0
0.25 0.75 0
0 0.625 0
0.125 0.625 0
0 0.75 0
0.125 0.75 0
0.25 0.5 0
0.375 0.5 0
0.25 0.625 0
0.375 0.625 0
0.375 0.5 0
0.5 0.5 0
0.375 0.625 0
0.5 0.625 0
0.375 0.625 0
0.5 0.625 0
0.375 0.75 0
0.5 0.75 0
0.25 0.625 0
0.375 0.625 0
0.25 0.75 0
0.375 0.75 0
0.25 0.75 0
0.375 0.75 0
0.25 0.875 0
0.375 0.875 0
0.375 0.75 0
0.5 0.75 0
0.375 0.875 0
0.5 0.875 0
0.375 0.875 0
0.5 0.875 0
0.375 1 0
0.5 1 0
0.25 0.875 0
0.375 0.875 0
0.25 1 0
0.375 1 0
0 0.75 0
0.125 0.75 0
0 0.875 0
0.125 0.875 0
0.125 0.75 0
0.25 0.75 0
0.125 0.875 0
0.25 0.875 0
0.125 0.875 0
0.25 0.875 0
0.125 1 0
0.25 1 0
0 0.875 0
0.125 0.875 0
0 1 0
0.125 1 0
1 0 0
1.125 0 0
1 0.125 0
1.125 0.125 0
1.125 0 0
1.25 0 0
1.125 0.125 0
1.25 0.125 0
1.125 0.125 0
1.25 0.125 0
1.125 0.25 0
1.25 0.25 0
1 0.125 0
1.125 0.125 0
1 0.25 0
1.125 0.25 0
1.25 0 0
1.375 0 0
1.25 0.125 0
1.375 0.125 0
1.375 0 0
1.5 0 0
1.375 0.125 0
1.5 0.125 0
1.375 0.125 0
1.5 0.125 0
1.375 0.25 0
1.5 0.25 0
1.25 0.125 0
1.375 0.125 0
1.25 0.25 0
1.375 0.25 0
1.25 0.25 0
1.375 0.25 0
1.25 0.375 0
1.375 0.375 0
1.375 0.25 0
1.5 0.25 0
1.375 0.375 0
1.5 0.375 0
1.375 0.375 0
1.5 0.375 0
1.375 0.5 0
1.5 0.5 0
1.25 0.375 0
1.375 0.375 0
1.25 0.5 0
1.375 0.5 0
1 0.25 0
1.125 0.25 0
1 0.375 0
1.125 0.375 0
1.125 0.25 0
1.25 0.25 0
1.125 0.375 0
1.25 0.375 0
1.125 0.375 0
1.25 0.375 0
1.125 0.5 0
1.25 0.5 0
1 0.375 0
1.125 0.375 0
1 0.5 0
1.125 0.5 0
1.5 0 0
1.625 0 0
1.5 0.125 0
1.625 0.125 0
1.625 0 0
1.75 0 0
1.625 0.125 0
1.75 0.125 0
1.625 0.125 0
1.75 0.125 0
1.625 0.25 0
1.75 0.25 0
1.5 0.125 0
1.625 0.125 0
1.5 0.25 0
1.625 0.25 0
1.75 0 0
1.875 0 0
1.75 0.125 0
1.875 0.125 0
1.875 0 0
2 0 0
1.875 0.125 0
2 0.125 0
1.875 0.125 0
2 0.125 0
1.875 0.25 0
2 0.25 0
1.75 0.125 0
1.875 0.125 0
1.75 0.25 0
1.875 0.25 0
1.75 0.25 0
1.875 0.25 0
1.75 0.375 0
1.875 0.375 0
1.875 0.25 0
2 0.25 0
1.875 0.375 0
2 0.375 0
1.875 0.375 0
2 0.375 0
1.875 0.5 0
2 0.5 0
1.75 0.375 0
1.875 0.375 0
1.75 0.5 0
1.875 0.5 0
1.5 0.25 0
1.625 0.25 0
1.5 0.375 0
1.625 0.375 0
1.625 0.25 0
1.75 0.25 0
1.625 0.375 0
1.75 0.375 0
1.625 0.375 0
1.75 0.375 0
1.625 0.5 0
1.75 0.5 0
1.5 0.375 0
1.625 0.375 0
1.5 0.5 0
1.625 0.5 0
1.5 0.5 0
1.625 0.5 0
1.5 0.625 0
1.625 0.625 0
1.625 0.5 0
1.75 0.5 0
1.625 0.625 0
1.75 0.625 0
1.625 0.625 0
1.75 0.625 0
1.625 0.75 0
1.75 0.75 0
1.5 0.625 0
1.625 0.625 0
1.5 0.75 0
1.625 0.75 0
1.75 0.5 0
1.875 0.5 0
1.75 0.625 0
1.875 0.625 0
1.875 0.5 0
2 0.5 0
1.875 0.625 0
2 0.625 0
1.875 0.625 0
2 0.625 0
1.875 0.75 0
2 0.75 0
1.75 0.625 0
1.875 0.625 0
1.75 0.75 0
1.875 0.75 0
1.75 0.75 0
1.875 0.75 0
1.75 0.875 0
1.875 0.875 0
1.875 0.75 0
2 0.75 0
1.875 0.875 0
2 0.875 0
1.875 0.875 0
2 0.875 0
1.875 1 0
2 1 0
1.75 0.875 0
1.875 0.875 0
1.75 1 0
1.875 1 0
1.5 0.75 0
1.625 0.75 0
1.5 0.875 0
1.625 0.875 0
1.625 0.75 0
1.75 0.75 0
1.625 0.875 0
1.75 0.875 0
1.625 0.875 0
1.75 0.875 0
1.625 1 0
1.75 1 0
1.5 0.875 0
1.625 0.875 0
1.5 1 0
1.625 1 0
1 0.5 0
1.125 0.5 0
1 0.625 0
1.125 0.625 0
1.125 0.5 0
1.25 0.5 0
1.125 0.625 0
1.25 0.625 0
1.125 0.625 0
1.25 0.625 0
1.125 0.75 0
1.25 0.75 0
1 0.625 0
1.125 0.625 0
1 0.75 0
1.125 0.75 0
1.25 0.5 0
1.375 0.5 0
1.25 0.625 0
1.375 0.625 0
1.375 0.5 0
1.5 0.5 0
1.375 0.625 0
1.5 0.625 0
1.375 0.625 0
1.5 0.625 0
1.375 0.75 0
1.5 0.75 0
1.25 0.625 0
1.375 0.625 0
1.25 0.75 0
1.375 0.75 0
1.25 0.75 0
1.375 0.75 0
1.25 0.875 0
1.375 0.875 0
1.375 0.75 0
1.5 0.75 0
1.375 0.875 0
1.5 0.875 0
1.375 0.875 0
1.5 0.875 0
1.375 1 0
1.5 1 0
1.25 0.875 0
1.375 0.875 0
1.25 1 0
1.375 1 0
1 0.75 0
1.125 0.75 0
1 0.875 0
1.125 0.875 0
1.125 0.75 0
1.25 0.75 0
1.125 0.875 0
1.25 0.875 0
1.125 0.875 0
1.25 0.875 0
1.125 1 0
1.25 1 0
1 0.875 0
1.125 0.875 0
1 1 0
1.125 1 0
2 0 0
2.125 0 0
2 0.125 0
2.125 0.125 0
2.125 0 0
2.25 0 0
2.125 0.125 0
2.25 0.125 0
2.125 0.125 0
2.25 0.125 0
2.125 0.25 0
2.25 0.25 0
2 0.125 0
2.125 0.125 0
2 0.25 0
2.125 0.25 0
2.25 0 0
2.375 0 0
2.25 0.125 0
2.375 0.125 0
2.375 0 0
2.5 0 0
2.375 0.125 0
2.5 0.125 0
2.375 0.125 0
2.5 0.125 0
2.375 0.25 0
2.5 0.25 0
2.25 0.125 0
2.375 0.125 0
2.25 0.25 0
2.375 0.25 0
2.25 0.25 0
2.375 0.25 0
2.25 0.375 0
2.375 0.375 0
2.375 0.25 0
2.5 0.25 0
2.375 0.375 0
2.5 0.375 0
2.375 0.375 0
2.5 0.375 0
2.375 0.5 0
2.5 0.5 0
2.25 0.375 0
2.375 0.375 0
2.25 0.5 0
2.375 0.5 0
2 0.25 0
2.125 0.25 0
2 0.375 0
2.125 0.375 0
2.125 0.25 0
2.25 0.25 0
2.125 0.375 0
2.25 0.375 0
2.125 0.375 0
2.25 0.375 0
2.125 0.5 0
2.25 0.5 0
2 0.375 0
2.125 0.375 0
2 0.5 0
2.125 0.5 0
2.5 0 0
2.625 0 0
2.5 0.125 0
2.625 0.125 0
2.625 0 0
2.75 0 0
2.625 0.125 0
2.75 0.125 0
2.625 0.125 0
2.75 0.125 0
2.625 0.25 0
2.75 0.25 0
2.5 0.125 0
2.625 0.125 0
2.5 0.25 0
2.625 0.25 0
2.75 0 0
2.875 0 0
2.75 0.125 0
2.875 0.125 0
2.875 0 0
3 0 0
2.875 0.125 0
3 0.125 0
2.875 0.125 0
3 0.125 0
2.875 0.25 0
3 0.25 0
2.75 0.125 0
2.875 0.125 0
2.75 0.25 0
2.875 0.25 0
2.75 0.25 0
2.875 0.25 0
2.75 0.375 0
2.875 0.375 0
2.875 0.25 0
3 0.25 0
2.875 0.375 0
3 0.375 0
2.875 0.375 0
3 0.375 0
2.875 0.5 0
3 0.5 0
2.75 0.375 0
2.875 0.375 0
2.75 0.5 0
2.875 0.5 0
2.5 0.25 0
2.625 0.25 0
2.5 0.375 0
2.625 0.375 0
2.625 0.25 0
2.75 0.25 0
2.625 0.375 0
2.75 0.375 0
2.625 0.375 0
2.75 0.375 0
2.625 0.5 0
2.75 0.5 0
2.5 0.375 0
2.625 0.375 0
2.5 0.5 0
2.625 0.5 0
2.5 0.5 0
2.625 0.5 0
2.5 0.625 0
2.625 0.625 0
2.625 0.5 0
2.75 0.5 0
2.625 0.625 0
2.75 0.625 0
2.625 0.625 0
2.75 0.625 0
2.625 0.75 0
2.75 0.75 0
2.5 0.625 0
2.625 0.625 0
2.5 0.75 0
2.625 0.75 0
2.75 0.5 0
2.875 0.5 0
2.75 0.625 0
2.875 0.625 0
2.875 0.5 0
3 0.5 0
2.875 0.625 0
3 0.625 0
2.875 0.625 0
3 0.625 0
2.875 0.75 0
3 0.75 0
2.75 0.625 0
2.875 0.625 0
2.75 0.75 0
2.875 0.75 0
2.75 0.75 0
2.875 0.75 0
2.75 0.875 0
2.875 0.875 0
2.875 0.75 0
3 0.75 0
2.875 0.875 0
3 0.875 0
2.875 0.875 0
3 0.875 0
2.875 1 0
3 1 0
2.75 0.875 0
2.875 0.875 0
2.75 1 0
2.875 1 0
2.5 0.75 0
2.625 0.75 0
2.5 0.875 0
2.625 0.875 0
2.625 0.75 0
2.75 0.75 0
2.625 0.875 0
2.75 0.875 0
2.625 0.875 0
2.75 0.875 0
2.625 1 0
2.75 1 0
2.5 0.875 0
2.625 0.875 0
2.5 1 0
2.625 1 0
2 0.5 0
2.125 0.5 0
2 0.625 0
2.125 0.625 0
2.125 0.5 0
2.25 0.5 0
2.125 0.625 0
2.25 0.625 0
2.125 0.625 0
2.25 0.625 0
2.125 0.75 0
2.25 0.75 0
2 0.625 0
2.125 0.625 0
2 0.75 0
2.125 0.75 0
2.25 0.5 0
2.375 0.5 0
2.25 0.625 0
2.375 0.625 0
2.375 0.5 0
2.5 0.5 0
2.375 0.625 0
2.5 0.625 0
2.375 0.625 0
2.5 0.625 0
2.375 0.75 0
2.5 0.75 0
2.25 0.625 0
2.375 0.625 0
2.25 0.75 0
2.375 0.75 0
2.25 0.75 0
2.375 0.75 0
2.25 0.875 0
2.375 0.875 0
2.375 0.75 0
2.5 0.75 0
2.375 0.875 0
2.5 0.875 0
2.375 0.875 0
2.5 0.875 0
2.375 1 0
2.5 1 0
2.25 0.875 0
2.375 0.875 0
2.25 1 0
2.375 1 0
2 0.75 0
2.125 0.75 0
2 0.875 0
2.125 0.875 0
2.125 0.75 0
2.25 0.75 0
2.125 0.875 0
2.25 0.875 0
2.125 0.875 0
2.25 0.875 0
2.125 1 0
2.25 1 0
2 0.875 0
2.125 0.875 0
2 1 0
2.125 1 0
3 0 0
3.125 0 0
3 0.125 0
3.125 0.125 0
3.125 0 0
3.25 0 0
3.125 0.125 0
3.25 0.125 0
3.125 0.125 0
3.25 0.125 0
3.125 0.25 0
3.25 0.25 0
3 0.125 0
3.125 0.125 0
3 0.25 0
3.125 0.25 0
3.25 0 0
3.375 0 0
3.25 0.125 0
3.375 0.125 0
3.375 0 0
3.5 0 0
3.375 0.125 0
3.5 0.125 0
3.375 0.125 0
3.5 0.125 0
3.375 0.25 0
3.5 0.25 0
3.25 0.125 0
3.375 0.125 0
3.25 0.25 0
3.375 0.25 0
3.25 0.25 0
3.375 0.25 0
3.25 0.375 0
3.375 0.375 0
3.375 0.25 0
3.5 0.25 0
3.375 0.375 0
3.5 0.375 0
3.375 0.375 0
3.5 0.375 0
3.375 0.5 0
3.5 0.5 0
3.25 0.375 0
3.375 0.375 0
3.25 0.5 0
[...]
<CellData Scalars="attribute">
<DataArray type="Int32" Name="attribute" format="ascii">
1
1
1
1
1
1
1
1
1
1
1
1
1
1
1
1
1
1
1
1
1
1
1
1
1
1
1
1
1
1
1
1
1
1
1
1
1
1
1
1
1
1
1
1
1
1
1
1
1
1
1
1
1
1
1
1
1
1
1
1
1
1
1
1
1
1
1
1
1
1
1
1
1
1
1
1
1
1
1
1
1
1
1
1
1
1
1
1
1
1
1
1
1
1
1
1
1
1
1
1
1
1
1
1
1
1
1
1
1
1
1
1
1
1
1
1
1
1
1
1
1
1
1
1
1
1
1
1
1
1
1
1
1
1
1
1
1
1
1
1
1
1
1
1
1
1
1
1
1
1
1
1
1
1
1
1
1
1
1
1
1
1
1
1
1
1
1
1
1
1
1
1
1
1
1
1
1
1
1
1
1
1
1
1
1
1
1
1
1
1
1
1
1
1
1
1
1
1
1
1
1
1
1
1
1
1
1
1
1
1
1
1
1
1
1
1
1
1
1
1
1
1
1
1
1
1
1
1
1
1
1
1
1
1
1
1
1
1
1
1
1
1
1
1
1
1
1
1
1
1
1
1
1
1
1
1
2
2
2
2
2
2
2
2
2
2
2
2
2
2
2
2
2
2
2
2
2
2
2
2
2
2
2
2
2
2
2
2
2
2
2
2
2
2
2
2
2
2
2
2
2
2
2
2
2
2
2
2
2
2
2
2
2
2
2
2
2
2
2
2
2
2
2
2
2
2
2
2
2
2
2
2
2
2
2
2
2
2
2
2
2
2
2
2
2
2
2
2
2
2
2
2
2
2
2
2
2
2
2
2
2
2
2
2
2
2
2
2
2
2
2
2
2
2
2
2
2
2
2
2
2
2
2
2
2
2
2
2
2
2
2
2
2
2
2
2
2
2
2
2
2
2
2
2
2
2
2
2
2
2
2
2
2
2
2
2
2
2
2
2
2
2
2
2
2
2
2
2
2
2
2
2
2
2
2
2
2
2
2
2
2
2
2
2
2
2
2
2
2
2
2
2
2
2
2
2
2
2
2
2
2
2
2
2
2
2
2
2
2
2
2
2
2
2
2
2
2
2
2
2
2
2
2
2
2
2
2
2
2
2
2
2
2
2
2
2
2
2
2
2
2
2
2
2
2
2
2
2
2
2
2
2
</DataArray>
</CellData>
<PointData >
<DataArray type="Float64" Name="Pressure" NumberOfComponents="1" format="ascii" >
-0.000177719
-1.41186e-07
-0.000290818
-2.33714e-07
-1.41186e-07
4.71169e-12
-2.33714e-07
8.15929e-12
-2.33714e-07
8.15929e-12
-1.56902e-07
5.54077e-12
-0.000290818
-2.33714e-07
-0.00019388
-1.56902e-07
4.71169e-12
-1.00979e-16
8.15929e-12
-1.80285e-16
-1.00979e-16
2.2061e-21
-1.80285e-16
4.08345e-21
-1.80285e-16
4.08345e-21
-1.25528e-16
2.92022e-21
8.15929e-12
-1.80285e-16
5.54077e-12
-1.25528e-16
5.54077e-12
-1.25528e-16
2.83941e-12
-6.41429e-17
-1.25528e-16
2.92022e-21
-6.41429e-17
1.49376e-21
-6.41429e-17
1.49376e-21
-2.12265e-18
4.73762e-23
2.83941e-12
-6.41429e-17
1.00061e-13
-2.12265e-18
-0.00019388
-1.56902e-07
-9.69415e-05
-7.9674e-08
-1.56902e-07
5.54077e-12
-7.9674e-08
2.83941e-12
-7.9674e-08
2.83941e-12
-1.76452e-09
1.00061e-13
-9.69415e-05
-7.9674e-08
-2.17138e-09
-1.76452e-09
2.2061e-21
-2.50493e-26
4.08345e-21
-4.80523e-26
-2.50493e-26
4.92855e-31
-4.80523e-26
9.50713e-31
-4.80523e-26
9.50713e-31
-3.55957e-26
7.14348e-31
4.08345e-21
-4.80523e-26
2.92022e-21
-3.55957e-26
4.92855e-31
-2.36636e-36
9.50713e-31
-5.03209e-36
-2.36636e-36
7.1144e-41
-5.03209e-36
1.39292e-40
-5.03209e-36
1.39292e-40
-4.06801e-36
1.07863e-40
9.50713e-31
-5.03209e-36
7.14348e-31
-4.06801e-36
7.14348e-31
-4.06801e-36
3.71375e-31
-2.1449e-36
-4.06801e-36
1.07863e-40
-2.1449e-36
5.72807e-41
-2.1449e-36
5.72807e-41
-6.18173e-38
1.45838e-42
3.71375e-31
-2.1449e-36
1.06506e-32
-6.18173e-38
2.92022e-21
-3.55957e-26
1.49376e-21
-1.83199e-26
-3.55957e-26
7.14348e-31
-1.83199e-26
3.71375e-31
-1.83199e-26
3.71375e-31
-5.59384e-28
1.06506e-32
1.49376e-21
-1.83199e-26
4.73762e-23
-5.59384e-28
4.73762e-23
-5.59384e-28
-1.41917e-21
1.7448e-26
-5.59384e-28
1.06506e-32
1.7448e-26
-3.55125e-31
1.7448e-26
-3.55125e-31
3.54681e-26
-7.12459e-31
-1.41917e-21
1.7448e-26
-2.90649e-21
3.54681e-26
1.06506e-32
-6.18173e-38
-3.55125e-31
2.05124e-36
-6.18173e-38
1.45838e-42
2.05124e-36
-5.51185e-41
2.05124e-36
-5.51185e-41
4.05704e-36
-1.07688e-40
-3.55125e-31
2.05124e-36
-7.12459e-31
4.05704e-36
-7.12459e-31
4.05704e-36
-9.65883e-31
5.10873e-36
4.05704e-36
-1.07688e-40
5.10873e-36
-1.41241e-40
5.10873e-36
-1.41241e-40
2.41799e-36
-7.25211e-41
-9.65883e-31
5.10873e-36
-5.03947e-31
2.41799e-36
-2.90649e-21
3.54681e-26
-4.15622e-21
4.88701e-26
3.54681e-26
-7.12459e-31
4.88701e-26
-9.65883e-31
4.88701e-26
-9.65883e-31
2.56572e-26
-5.03947e-31
-4.15622e-21
4.88701e-26
-2.2641e-21
2.56572e-26
-2.17138e-09
-1.76452e-09
9.6938e-05
7.68263e-08
-1.76452e-09
1.00061e-13
7.68263e-08
-2.67828e-12
7.68263e-08
-2.67828e-12
1.56098e-07
-5.4965e-12
9.6938e-05
7.68263e-08
0.000193879
1.56098e-07
1.00061e-13
-2.12265e-18
-2.67828e-12
6.07589e-17
-2.12265e-18
4.73762e-23
6.07589e-17
-1.41917e-21
6.07589e-17
-1.41917e-21
1.24741e-16
-2.90649e-21
-2.67828e-12
6.07589e-17
-5.4965e-12
1.24741e-16
-5.4965e-12
1.24741e-16
-8.31021e-12
1.83639e-16
1.24741e-16
-2.90649e-21
1.83639e-16
-4.15622e-21
1.83639e-16
-4.15622e-21
1.03834e-16
-2.2641e-21
-8.31021e-12
1.83639e-16
-4.86624e-12
1.03834e-16
0.000193879
1.56098e-07
0.000290821
2.36344e-07
1.56098e-07
-5.4965e-12
2.36344e-07
-8.31021e-12
2.36344e-07
-8.31021e-12
1.43973e-07
-4.86624e-12
0.000290821
2.36344e-07
0.000177723
1.43973e-07
7.1144e-41
5.71495e-47
1.39292e-40
2.01975e-47
5.71495e-47
7.9623e-51
2.01975e-47
1.5451e-50
2.01975e-47
1.5451e-50
-3.77897e-47
1.20586e-50
1.39292e-40
2.01975e-47
1.07863e-40
-3.77897e-47
7.9623e-51
3.94207e-56
1.5451e-50
6.67044e-56
3.94207e-56
7.36039e-61
6.67044e-56
1.40263e-60
6.67044e-56
1.40263e-60
4.60333e-56
1.08874e-60
1.5451e-50
6.67044e-56
1.20586e-50
4.60333e-56
1.20586e-50
4.60333e-56
6.4989e-51
2.39934e-56
4.60333e-56
1.08874e-60
2.39934e-56
5.90329e-61
2.39934e-56
5.90329e-61
4.03286e-58
1.12294e-62
6.4989e-51
2.39934e-56
1.43982e-52
4.03286e-58
1.07863e-40
-3.77897e-47
5.72807e-41
-2.55849e-47
-3.77897e-47
1.20586e-50
-2.55849e-47
6.4989e-51
-2.55849e-47
6.4989e-51
-1.43508e-48
1.43982e-52
5.72807e-41
-2.55849e-47
1.45838e-42
-1.43508e-48
7.36039e-61
5.07571e-66
1.40263e-60
9.09817e-66
5.07571e-66
5.5111e-71
9.09817e-66
1.03512e-70
9.09817e-66
1.03512e-70
6.68413e-66
7.9795e-71
1.40263e-60
9.09817e-66
1.08874e-60
6.68413e-66
5.5111e-71
3.9584e-76
1.03512e-70
7.22752e-76
3.9584e-76
3.24912e-81
7.22752e-76
6.05244e-81
7.22752e-76
6.05244e-81
5.42919e-76
4.64784e-81
1.03512e-70
7.22752e-76
7.9795e-71
5.42919e-76
7.9795e-71
5.42919e-76
4.33255e-71
2.9189e-76
5.42919e-76
4.64784e-81
2.9189e-76
2.52413e-81
2.9189e-76
2.52413e-81
4.19796e-78
3.53594e-83
4.33255e-71
2.9189e-76
7.05825e-73
4.19796e-78
1.08874e-60
6.68413e-66
5.90329e-61
3.55901e-66
6.68413e-66
7.9795e-71
3.55901e-66
4.33255e-71
3.55901e-66
4.33255e-71
5.7185e-68
7.05825e-73
5.90329e-61
3.55901e-66
1.12294e-62
5.7185e-68
1.12294e-62
5.7185e-68
-5.74166e-61
-3.4781e-66
5.7185e-68
7.05825e-73
-3.4781e-66
-4.23167e-71
-3.4781e-66
-4.23167e-71
-6.68632e-66
-7.97672e-71
-5.74166e-61
-3.4781e-66
-1.08805e-60
-6.68632e-66
7.05825e-73
4.19796e-78
-4.23167e-71
-2.85953e-76
4.19796e-78
3.53594e-83
-2.85953e-76
-2.47381e-81
-2.85953e-76
-2.47381e-81
-5.43004e-76
-4.64701e-81
-4.23167e-71
-2.85953e-76
-7.97672e-71
-5.43004e-76
-7.97672e-71
-5.43004e-76
-1.04464e-70
-7.2901e-76
-5.43004e-76
-4.64701e-81
-7.2901e-76
-6.10104e-81
-7.2901e-76
-6.10104e-81
-4.003e-76
-3.2836e-81
-1.04464e-70
-7.2901e-76
-5.57858e-71
-4.003e-76
-1.08805e-60
-6.68632e-66
-1.41744e-60
-9.18841e-66
-6.68632e-66
-7.97672e-71
-9.18841e-66
-1.04464e-70
-9.18841e-66
-1.04464e-70
-5.14081e-66
-5.57858e-71
-1.41744e-60
-9.18841e-66
-7.46495e-61
-5.14081e-66
1.45838e-42
-1.43508e-48
-5.51185e-41
2.334e-47
-1.43508e-48
1.43982e-52
2.334e-47
-6.28933e-51
2.334e-47
-6.28933e-51
3.70765e-47
-1.20461e-50
-5.51185e-41
2.334e-47
-1.07688e-40
3.70765e-47
1.43982e-52
4.03286e-58
-6.28933e-51
-2.34255e-56
4.03286e-58
1.12294e-62
-2.34255e-56
-5.74166e-61
-2.34255e-56
-5.74166e-61
-4.60761e-56
-1.08805e-60
-6.28933e-51
-2.34255e-56
-1.20461e-50
-4.60761e-56
-1.20461e-50
-4.60761e-56
-1.56389e-50
-6.74571e-56
-4.60761e-56
-1.08805e-60
-6.74571e-56
-1.41744e-60
-6.74571e-56
-1.41744e-60
-3.99859e-56
-7.46495e-61
-1.56389e-50
-6.74571e-56
-8.0943e-51
-3.99859e-56
-1.07688e-40
3.70765e-47
-1.41241e-40
-2.0303e-47
3.70765e-47
-1.20461e-50
-2.0303e-47
-1.56389e-50
-2.0303e-47
-1.56389e-50
-5.77117e-47
-8.0943e-51
-1.41241e-40
-2.0303e-47
-7.25211e-41
-5.77117e-47
3.24912e-81
2.18962e-86
6.05244e-81
4.0275e-86
2.18962e-86
1.49521e-91
4.0275e-86
2.77387e-91
4.0275e-86
2.77387e-91
3.05754e-86
2.12758e-91
6.05244e-81
4.0275e-86
4.64784e-81
3.05754e-86
1.49521e-91
9.12367e-97
2.77387e-91
1.68323e-96
9.12367e-97
5.3989e-102
1.68323e-96
9.99611e-102
1.68323e-96
9.99611e-102
1.28496e-96
7.66814e-102
2.77387e-91
1.68323e-96
2.12758e-91
1.28496e-96
2.12758e-91
1.28496e-96
1.15569e-91
6.96474e-97
1.28496e-96
7.66814e-102
6.96474e-97
4.16659e-102
6.96474e-97
4.16659e-102
7.7452e-99
4.37778e-104
1.15569e-91
6.96474e-97
1.39927e-93
7.7452e-99
4.64784e-81
3.05754e-86
2.52413e-81
1.65246e-86
3.05754e-86
2.12758e-91
1.65246e-86
1.15569e-91
1.65246e-86
1.15569e-91
2.09564e-88
1.39927e-93
2.52413e-81
1.65246e-86
3.53594e-83
2.09564e-88
5.3989e-102
2.95523e-107
9.99611e-102
5.4583e-107
2.95523e-107
1.54547e-112
5.4583e-107
2.85854e-112
5.4583e-107
2.85854e-112
4.17982e-107
2.19419e-112
9.99611e-102
5.4583e-107
7.66814e-102
4.17982e-107
1.54547e-112
7.58911e-118
2.85854e-112
1.40215e-117
7.58911e-118
3.54555e-123
1.40215e-117
6.55399e-123
1.40215e-117
6.55399e-123
1.07572e-117
5.03431e-123
2.85854e-112
1.40215e-117
2.19419e-112
1.07572e-117
2.19419e-112
1.07572e-117
1.1926e-112
5.8448e-118
1.07572e-117
5.03431e-123
5.8448e-118
2.73685e-123
5.8448e-118
2.73685e-123
4.96983e-120
2.18108e-125
1.1926e-112
5.8448e-118
1.09032e-114
4.96983e-120
7.66814e-102
4.17982e-107
4.16659e-102
2.26913e-107
4.17982e-107
2.19419e-112
2.26913e-107
1.1926e-112
2.26913e-107
1.1926e-112
2.20754e-109
1.09032e-114
4.16659e-102
2.26913e-107
4.37778e-104
2.20754e-109
4.37778e-104
2.20754e-109
-4.10456e-102
-2.23792e-107
2.20754e-109
1.09032e-114
-2.23792e-107
-1.17716e-112
-2.23792e-107
-1.17716e-112
-4.17988e-107
-2.19413e-112
-4.10456e-102
-2.23792e-107
-7.6678e-102
-4.17988e-107
1.09032e-114
4.96983e-120
-1.17716e-112
-5.77451e-118
4.96983e-120
2.18108e-125
-5.77451e-118
-2.70598e-123
-5.77451e-118
-2.70598e-123
-1.07572e-117
-5.0342e-123
-1.17716e-112
-5.77451e-118
-2.19413e-112
-1.07572e-117
-2.19413e-112
-1.07572e-117
-2.87382e-112
-1.40915e-117
-1.07572e-117
-5.0342e-123
-1.40915e-117
-6.58454e-123
-1.40915e-117
-6.58454e-123
-7.63871e-118
-3.56719e-123
-2.87382e-112
-1.40915e-117
-1.55629e-112
-7.63871e-118
-7.6678e-102
-4.17988e-107
-1.00573e-101
-5.48959e-107
-4.17988e-107
-2.19413e-112
-5.48959e-107
-2.87382e-112
-5.48959e-107
-2.87382e-112
-2.97738e-107
-1.55629e-112
-1.00573e-101
-5.48959e-107
-5.44228e-102
-2.97738e-107
3.53594e-83
2.09564e-88
-2.47381e-81
-1.62283e-86
2.09564e-88
1.39927e-93
-1.62283e-86
-1.13583e-91
-1.62283e-86
-1.13583e-91
-3.05778e-86
-2.12739e-91
-2.47381e-81
-1.62283e-86
-4.64701e-81
-3.05778e-86
1.39927e-93
7.7452e-99
-1.13583e-91
-6.85524e-97
7.7452e-99
4.37778e-104
-6.85524e-97
-4.10456e-102
-6.85524e-97
-4.10456e-102
-1.28501e-96
-7.6678e-102
-1.13583e-91
-6.85524e-97
-2.12739e-91
-1.28501e-96
-2.12739e-91
-1.28501e-96
-2.79332e-91
-1.6943e-96
-1.28501e-96
-7.6678e-102
-1.6943e-96
-1.00573e-101
-1.6943e-96
-1.00573e-101
-9.20209e-97
-5.44228e-102
-2.79332e-91
-1.6943e-96
-1.509e-91
-9.20209e-97
-4.64701e-81
-3.05778e-86
-6.10104e-81
-4.0579e-86
-3.05778e-86
-2.12739e-91
-4.0579e-86
-2.79332e-91
-4.0579e-86
-2.79332e-91
-2.21119e-86
-1.509e-91
-6.10104e-81
-4.0579e-86
-3.2836e-81
-2.21119e-86
3.54555e-123
1.5665e-128
6.55399e-123
2.89409e-128
1.5665e-128
6.58202e-134
2.89409e-128
1.21617e-133
2.89409e-128
1.21617e-133
2.22296e-128
9.34763e-134
6.55399e-123
2.89409e-128
5.03431e-123
2.22296e-128
6.58202e-134
2.62531e-139
1.21617e-133
4.8493e-139
2.62531e-139
9.96567e-145
4.8493e-139
1.84072e-144
4.8493e-139
1.84072e-144
3.72769e-139
1.41553e-144
1.21617e-133
4.8493e-139
9.34763e-134
3.72769e-139
9.34763e-134
3.72769e-139
5.08234e-134
2.02664e-139
3.72769e-139
1.41553e-144
2.02664e-139
7.69658e-145
2.02664e-139
7.69658e-145
1.31594e-141
4.67543e-147
5.08234e-134
2.02664e-139
3.53471e-136
1.31594e-141
5.03431e-123
2.22296e-128
2.73685e-123
1.20833e-128
2.22296e-128
9.34763e-134
1.20833e-128
5.08234e-134
1.20833e-128
5.08234e-134
8.97798e-131
3.53471e-136
2.73685e-123
1.20833e-128
2.18108e-125
8.97798e-131
9.96567e-145
3.59896e-150
1.84072e-144
6.6461e-150
3.59896e-150
1.23804e-155
6.6461e-150
2.28604e-155
6.6461e-150
2.28604e-155
5.11171e-150
1.75871e-155
1.84072e-144
6.6461e-150
1.41553e-144
5.11171e-150
1.23804e-155
4.057e-161
2.28604e-155
7.48999e-161
4.057e-161
1.26719e-166
7.48999e-161
2.33921e-166
7.48999e-161
2.33921e-166
5.76307e-161
1.80019e-166
2.28604e-155
7.48999e-161
1.75871e-155
5.76307e-161
1.75871e-155
5.76307e-161
9.56226e-156
3.1333e-161
5.76307e-161
1.80019e-166
3.1333e-161
9.78718e-167
3.1333e-161
9.78718e-167
1.55521e-163
4.54411e-169
9.56226e-156
3.1333e-161
5.0769e-158
1.55521e-163
1.41553e-144
5.11171e-150
7.69658e-145
2.77924e-150
5.11171e-150
1.75871e-155
2.77924e-150
9.56226e-156
2.77924e-150
9.56226e-156
1.57751e-152
5.0769e-158
7.69658e-145
2.77924e-150
4.67543e-147
1.57751e-152
4.67543e-147
1.57751e-152
-7.63038e-145
-2.75689e-150
1.57751e-152
5.0769e-158
-2.75689e-150
-9.49033e-156
-2.75689e-150
-9.49033e-156
-5.11158e-150
-1.75866e-155
-7.63038e-145
-2.75689e-150
-1.4155e-144
-5.11158e-150
5.0769e-158
1.55521e-163
-9.49033e-156
-3.11126e-161
1.55521e-163
4.54411e-169
-3.11126e-161
-9.72276e-167
-3.11126e-161
-9.72276e-167
-5.76289e-161
-1.80013e-166
-9.49033e-156
-3.11126e-161
-1.75866e-155
-5.76289e-161
-1.75866e-155
-5.76289e-161
-2.29311e-155
-7.5116e-161
-5.76289e-161
-1.80013e-166
-7.5116e-161
-2.34551e-166
-7.5116e-161
-2.34551e-166
-4.0723e-161
-1.27165e-166
-2.29311e-155
-7.5116e-161
-1.24305e-155
-4.0723e-161
-1.4155e-144
-5.11158e-150
-1.84725e-144
-6.66811e-150
-5.11158e-150
-1.75866e-155
-6.66811e-150
-2.29311e-155
-6.66811e-150
-2.29311e-155
-3.61454e-150
-1.24305e-155
-1.84725e-144
-6.66811e-150
-1.00119e-144
-3.61454e-150
2.18108e-125
8.97798e-131
-2.70598e-123
-1.19563e-128
8.97798e-131
3.53471e-136
-1.19563e-128
-5.0323e-134
-1.19563e-128
-5.0323e-134
-2.22293e-128
-9.34742e-134
-2.70598e-123
-1.19563e-128
-5.0342e-123
-2.22293e-128
3.53471e-136
1.31594e-141
-5.0323e-134
-2.00801e-139
1.31594e-141
4.67543e-147
-2.00801e-139
-7.63038e-145
-2.00801e-139
-7.63038e-145
-3.72761e-139
-1.4155e-144
-5.0323e-134
-2.00801e-139
-9.34742e-134
-3.72761e-139
-9.34742e-134
-3.72761e-139
-1.22111e-133
-4.86772e-139
-3.72761e-139
-1.4155e-144
-4.86772e-139
-1.84725e-144
-4.86772e-139
-1.84725e-144
-2.63835e-139
-1.00119e-144
-1.22111e-133
-4.86772e-139
-6.61704e-134
-2.63835e-139
-5.0342e-123
-2.22293e-128
-6.58454e-123
-2.9067e-128
-2.22293e-128
-9.34742e-134
-2.9067e-128
-1.22111e-133
-2.9067e-128
-1.22111e-133
-1.57542e-128
-6.61704e-134
-6.58454e-123
-2.9067e-128
-3.56719e-123
-1.57542e-128
1.26719e-166
3.77288e-172
2.33921e-166
6.96369e-172
3.77288e-172
1.07096e-177
6.96369e-172
1.97647e-177
6.96369e-172
1.97647e-177
5.35971e-172
1.52142e-177
2.33921e-166
6.96369e-172
1.80019e-166
5.35971e-172
1.07096e-177
2.89793e-183
1.97647e-177
5.34752e-183
2.89793e-183
7.47371e-189
5.34752e-183
1.37896e-188
5.34752e-183
1.37896e-188
4.11674e-183
1.06169e-188
1.97647e-177
5.34752e-183
1.52142e-177
4.11674e-183
1.52142e-177
4.11674e-183
8.27084e-178
2.23786e-183
4.11674e-183
1.06169e-188
2.23786e-183
5.77107e-189
2.23786e-183
5.77107e-189
8.50438e-186
2.05217e-191
8.27084e-178
2.23786e-183
3.35981e-180
8.50438e-186
1.80019e-166
5.35971e-172
9.78718e-167
2.9138e-172
5.35971e-172
1.52142e-177
2.9138e-172
8.27084e-178
2.9138e-172
8.27084e-178
1.26521e-174
3.35981e-180
9.78718e-167
2.9138e-172
4.54411e-169
1.26521e-174
7.47371e-189
1.83624e-194
1.37896e-188
3.38766e-194
1.83624e-194
4.2954e-200
3.38766e-194
7.92375e-200
3.38766e-194
7.92375e-200
2.60843e-194
6.10159e-200
1.37896e-188
3.38766e-194
1.06169e-188
2.60843e-194
4.2954e-200
9.55814e-206
7.92375e-200
1.76303e-205
9.55814e-206
2.0208e-211
1.76303e-205
3.72709e-211
1.76303e-205
3.72709e-211
1.35769e-205
2.87036e-211
7.92375e-200
1.76303e-205
6.10159e-200
1.35769e-205
6.10159e-200
1.35769e-205
3.31633e-200
7.37893e-206
1.35769e-205
2.87036e-211
7.37893e-206
1.55994e-211
7.37893e-206
1.55994e-211
2.1511e-208
4.2574e-214
3.31633e-200
7.37893e-206
1.03284e-202
2.1511e-208
1.06169e-188
2.60843e-194
5.77107e-189
1.4178e-194
2.60843e-194
6.10159e-200
1.4178e-194
3.31633e-200
1.4178e-194
3.31633e-200
4.71781e-197
1.03284e-202
5.77107e-189
1.4178e-194
2.05217e-191
4.71781e-197
2.05217e-191
4.71781e-197
-5.74193e-189
-1.4111e-194
4.71781e-197
1.03284e-202
-1.4111e-194
-3.30165e-200
-1.4111e-194
-3.30165e-200
-2.60832e-194
-6.10133e-200
-5.74193e-189
-1.4111e-194
-1.06165e-188
-2.60832e-194
1.03284e-202
2.1511e-208
-3.30165e-200
-7.34833e-206
2.1511e-208
4.2574e-214
-7.34833e-206
-1.55389e-211
-7.34833e-206
-1.55389e-211
-1.35763e-205
-2.87023e-211
-3.30165e-200
-7.34833e-206
-6.10133e-200
-1.35763e-205
-6.10133e-200
-1.35763e-205
-7.93787e-200
-1.76596e-205
-1.35763e-205
-2.87023e-211
-1.76596e-205
-3.73287e-211
-1.76596e-205
-3.73287e-211
-9.57891e-206
-2.02489e-211
-7.93787e-200
-1.76596e-205
-4.3054e-200
-9.57891e-206
-1.06165e-188
-2.60832e-194
-1.38179e-188
-3.39413e-194
-2.60832e-194
-6.10133e-200
-3.39413e-194
-7.93787e-200
-3.39413e-194
-7.93787e-200
-1.84082e-194
-4.3054e-200
-1.38179e-188
-3.39413e-194
-7.49369e-189
-1.84082e-194
4.54411e-169
1.26521e-174
-9.72276e-167
-2.89586e-172
1.26521e-174
3.35981e-180
-2.89586e-172
-8.22317e-178
-2.89586e-172
-8.22317e-178
-5.35953e-172
-1.52136e-177
-9.72276e-167
-2.89586e-172
-1.80013e-166
-5.35953e-172
3.35981e-180
8.50438e-186
-8.22317e-178
-2.22579e-183
8.50438e-186
2.05217e-191
-2.22579e-183
-5.74193e-189
-2.22579e-183
-5.74193e-189
-4.11659e-183
-1.06165e-188
-8.22317e-178
-2.22579e-183
-1.52136e-177
-4.11659e-183
-1.52136e-177
-4.11659e-183
-1.98111e-177
-5.35924e-183
-4.11659e-183
-1.06165e-188
-5.35924e-183
-1.38179e-188
-5.35924e-183
-1.38179e-188
-2.90623e-183
-7.49369e-189
-1.98111e-177
-5.35924e-183
-1.07425e-177
-2.90623e-183
-1.80013e-166
-5.35953e-172
-2.34551e-166
-6.98121e-172
-5.35953e-172
-1.52136e-177
-6.98121e-172
-1.98111e-177
-6.98121e-172
-1.98111e-177
-3.78528e-172
-1.07425e-177
-2.34551e-166
-6.98121e-172
-1.27165e-166
-3.78528e-172
2.0208e-211
4.0528e-217
3.72709e-211
7.47421e-217
4.0528e-217
7.69393e-223
7.47421e-217
1.41881e-222
7.47421e-217
1.41881e-222
5.75647e-217
1.09279e-222
3.72709e-211
7.47421e-217
2.87036e-211
5.75647e-217
7.69393e-223
1.37866e-228
1.41881e-222
2.54214e-228
1.37866e-228
2.32263e-234
2.54214e-228
4.28245e-234
2.54214e-228
4.28245e-234
1.95808e-228
3.29869e-234
1.41881e-222
2.54214e-228
1.09279e-222
1.95808e-228
1.09279e-222
1.95808e-228
5.93837e-223
1.064e-228
1.95808e-228
3.29869e-234
1.064e-228
1.7924e-234
1.064e-228
1.7924e-234
2.3849e-231
3.76367e-237
5.93837e-223
1.064e-228
1.42111e-225
2.3849e-231
2.87036e-211
5.75647e-217
1.55994e-211
3.12829e-217
5.75647e-217
1.09279e-222
3.12829e-217
5.93837e-223
3.12829e-217
5.93837e-223
7.99407e-220
1.42111e-225
1.55994e-211
3.12829e-217
4.2574e-214
7.99407e-220
2.32263e-234
3.65871e-240
4.28245e-234
6.74544e-240
3.65871e-240
5.34537e-246
6.74544e-240
9.85448e-246
6.74544e-240
9.85448e-246
5.19607e-240
7.59124e-246
4.28245e-234
6.74544e-240
3.29869e-234
5.19607e-240
5.34537e-246
7.15173e-252
9.85448e-246
1.31838e-251
7.15173e-252
8.57206e-258
1.31838e-251
1.58012e-257
1.31838e-251
1.58012e-257
1.01563e-251
1.2173e-257
9.85448e-246
1.31838e-251
7.59124e-246
1.01563e-251
7.59124e-246
1.01563e-251
4.12451e-246
5.51794e-252
1.01563e-251
1.2173e-257
5.51794e-252
6.61339e-258
5.51794e-252
6.61339e-258
9.5368e-255
1.07165e-260
4.12451e-246
5.51794e-252
7.60488e-249
9.5368e-255
3.29869e-234
5.19607e-240
1.7924e-234
2.82326e-240
5.19607e-240
7.59124e-246
2.82326e-240
4.12451e-246
2.82326e-240
4.12451e-246
5.55464e-243
7.60488e-249
1.7924e-234
2.82326e-240
3.76367e-237
5.55464e-243
3.76367e-237
5.55464e-243
-1.78703e-234
-2.81533e-240
5.55464e-243
7.60488e-249
-2.81533e-240
-4.11364e-246
-2.81533e-240
-4.11364e-246
-5.19581e-240
-7.59085e-246
-1.78703e-234
-2.81533e-240
-3.29852e-234
-5.19581e-240
7.60488e-249
9.5368e-255
-4.11364e-246
-5.5043e-252
9.5368e-255
1.07165e-260
-5.5043e-252
-6.59804e-258
-5.5043e-252
-6.59804e-258
-1.01557e-251
-1.21723e-257
-4.11364e-246
-5.5043e-252
-7.59085e-246
-1.01557e-251
-7.59085e-246
-1.01557e-251
-9.86457e-246
-1.31964e-251
-1.01557e-251
-1.21723e-257
-1.31964e-251
-1.58153e-257
-1.31964e-251
-1.58153e-257
-7.16065e-252
-8.58203e-258
-9.86457e-246
-1.31964e-251
-5.35252e-246
-7.16065e-252
-3.29852e-234
-5.19581e-240
-4.28749e-234