<VTKFile type="UnstructuredGrid" version="0.1" byte_order="LittleEndian">
<UnstructuredGrid>
<Piece NumberOfPoints="2048" NumberOfCells="512">
<Points>
<DataArray type="Float64" NumberOfComponents="3" format="ascii">
0 0 0
0.125 0 0
0 0.125 0
0.125 0.125 0
0.125 0 0
0.25 0 0
0.125 0.125 0
0.25 0.125 0
0.125 0.125 0
0.25 0.125 0
0.125 0.25 0
0.25 0.25 0
0 0.125 0
0.125 0.125 0
0 0.25 0
0.125 0.25 0
0.25 0 0
0.375 0 0
0.25 0.125 0
0.375 0.125 0
0.375 0 0
0.5 0 0
0.375 0.125 0
0.5 0.125 0
0.375 0.125 0
0.5 0.125 0
0.375 0.25 0
0.5 0.25 0
0.25 0.125 0
0.375 0.125 0
0.25 0.25 0
0.375 0.25 0
0.25 0.25 0
0.375 0.25 0
0.25 0.375 0
0.375 0.375 0
0.375 0.25 0
0.5 0.25 0
0.375 0.375 0
0.5 0.375 0
0.375 0.375 0
0.5 0.375 0
0.375 0.5 0
0.5 0.5 0
0.25 0.375 0
0.375 0.375 0
0.25 0.5 0
0.375 0.5 0
0 0.25 0
0.125 0.25 0
0 0.375 0
0.125 0.375 0
0.125 0.25 0
0.25 0.25 0
0.125 0.375 0
0.25 0.375 0
0.125 0.375 0
0.25 0.375 0
0.125 0.5 0
0.25 0.5 0
0 0.375 0
0.125 0.375 0
0 0.5 0
0.125 0.5 0
0.5 0 0
0.625 0 0
0.5 0.125 0
0.625 0.125 0
0.625 0 0
0.75 0 0
0.625 0.125 0
0.75 0.125 0
0.625 0.125 0
0.75 0.125 0
0.625 0.25 0
0.75 0.25 0
0.5 0.125 0
0.625 0.125 0
0.5 0.25 0
0.625 0.25 0
0.75 0 0
0.875 0 0
0.75 0.125 0
0.875 0.125 0
0.875 0 0
1 0 0
0.875 0.125 0
1 0.125 0
0.875 0.125 0
1 0.125 0
0.875 0.25 0
1 0.25 0
0.75 0.125 0
0.875 0.125 0
0.75 0.25 0
0.875 0.25 0
0.75 0.25 0
0.875 0.25 0
0.75 0.375 0
0.875 0.375 0
0.875 0.25 0
1 0.25 0
0.875 0.375 0
1 0.375 0
0.875 0.375 0
1 0.375 0
0.875 0.5 0
1 0.5 0
0.75 0.375 0
0.875 0.375 0
0.75 0.5 0
0.875 0.5 0
0.5 0.25 0
0.625 0.25 0
0.5 0.375 0
0.625 0.375 0
0.625 0.25 0
0.75 0.25 0
0.625 0.375 0
0.75 0.375 0
0.625 0.375 0
0.75 0.375 0
0.625 0.5 0
0.75 0.5 0
0.5 0.375 0
0.625 0.375 0
0.5 0.5 0
0.625 0.5 0
0.5 0.5 0
0.625 0.5 0
0.5 0.625 0
0.625 0.625 0
0.625 0.5 0
0.75 0.5 0
0.625 0.625 0
0.75 0.625 0
0.625 0.625 0
0.75 0.625 0
0.625 0.75 0
0.75 0.75 0
0.5 0.625 0
0.625 0.625 0
0.5 0.75 0
0.625 0.75 0
0.75 0.5 0
0.875 0.5 0
0.75 0.625 0
0.875 0.625 0
0.875 0.5 0
1 0.5 0
0.875 0.625 0
1 0.625 0
0.875 0.625 0
1 0.625 0
0.875 0.75 0
1 0.75 0
0.75 0.625 0
0.875 0.625 0
0.75 0.75 0
0.875 0.75 0
0.75 0.75 0
0.875 0.75 0
0.75 0.875 0
0.875 0.875 0
0.875 0.75 0
1 0.75 0
0.875 0.875 0
1 0.875 0
0.875 0.875 0
1 0.875 0
0.875 1 0
1 1 0
0.75 0.875 0
0.875 0.875 0
0.75 1 0
0.875 1 0
0.5 0.75 0
0.625 0.75 0
0.5 0.875 0
0.625 0.875 0
0.625 0.75 0
0.75 0.75 0
0.625 0.875 0
0.75 0.875 0
0.625 0.875 0
0.75 0.875 0
0.625 1 0
0.75 1 0
0.5 0.875 0
0.625 0.875 0
0.5 1 0
0.625 1 0
0 0.5 0
0.125 0.5 0
0 0.625 0
0.125 0.625 0
0.125 0.5 0
0.25 0.5 0
0.125 0.625 0
0.25 0.625 0
0.125 0.625 0
0.25 0.625 0
0.125 0.75 0
0.25 0.75 0
0 0.625 0
0.125 0.625 0
0 0.75 0
0.125 0.75 0
0.25 0.5 0
0.375 0.5 0
0.25 0.625 0
0.375 0.625 0
0.375 0.5 0
0.5 0.5 0
0.375 0.625 0
0.5 0.625 0
0.375 0.625 0
0.5 0.625 0
0.375 0.75 0
0.5 0.75 0
0.25 0.625 0
0.375 0.625 0
0.25 0.75 0
0.375 0.75 0
0.25 0.75 0
0.375 0.75 0
0.25 0.875 0
0.375 0.875 0
0.375 0.75 0
0.5 0.75 0
0.375 0.875 0
0.5 0.875 0
0.375 0.875 0
0.5 0.875 0
0.375 1 0
0.5 1 0
0.25 0.875 0
0.375 0.875 0
0.25 1 0
0.375 1 0
0 0.75 0
0.125 0.75 0
0 0.875 0
0.125 0.875 0
0.125 0.75 0
0.25 0.75 0
0.125 0.875 0
0.25 0.875 0
0.125 0.875 0
0.25 0.875 0
0.125 1 0
0.25 1 0
0 0.875 0
0.125 0.875 0
0 1 0
0.125 1 0
1 0 0
1.125 0 0
1 0.125 0
1.125 0.125 0
1.125 0 0
1.25 0 0
1.125 0.125 0
1.25 0.125 0
1.125 0.125 0
1.25 0.125 0
1.125 0.25 0
1.25 0.25 0
1 0.125 0
1.125 0.125 0
1 0.25 0
1.125 0.25 0
1.25 0 0
1.375 0 0
1.25 0.125 0
1.375 0.125 0
1.375 0 0
1.5 0 0
1.375 0.125 0
1.5 0.125 0
1.375 0.125 0
1.5 0.125 0
1.375 0.25 0
1.5 0.25 0
1.25 0.125 0
1.375 0.125 0
1.25 0.25 0
1.375 0.25 0
1.25 0.25 0
1.375 0.25 0
1.25 0.375 0
1.375 0.375 0
1.375 0.25 0
1.5 0.25 0
1.375 0.375 0
1.5 0.375 0
1.375 0.375 0
1.5 0.375 0
1.375 0.5 0
1.5 0.5 0
1.25 0.375 0
1.375 0.375 0
1.25 0.5 0
1.375 0.5 0
1 0.25 0
1.125 0.25 0
1 0.375 0
1.125 0.375 0
1.125 0.25 0
1.25 0.25 0
1.125 0.375 0
1.25 0.375 0
1.125 0.375 0
1.25 0.375 0
1.125 0.5 0
1.25 0.5 0
1 0.375 0
1.125 0.375 0
1 0.5 0
1.125 0.5 0
1.5 0 0
1.625 0 0
1.5 0.125 0
1.625 0.125 0
1.625 0 0
1.75 0 0
1.625 0.125 0
1.75 0.125 0
1.625 0.125 0
1.75 0.125 0
1.625 0.25 0
1.75 0.25 0
1.5 0.125 0
1.625 0.125 0
1.5 0.25 0
1.625 0.25 0
1.75 0 0
1.875 0 0
1.75 0.125 0
1.875 0.125 0
1.875 0 0
2 0 0
1.875 0.125 0
2 0.125 0
1.875 0.125 0
2 0.125 0
1.875 0.25 0
2 0.25 0
1.75 0.125 0
1.875 0.125 0
1.75 0.25 0
1.875 0.25 0
1.75 0.25 0
1.875 0.25 0
1.75 0.375 0
1.875 0.375 0
1.875 0.25 0
2 0.25 0
1.875 0.375 0
2 0.375 0
1.875 0.375 0
2 0.375 0
1.875 0.5 0
2 0.5 0
1.75 0.375 0
1.875 0.375 0
1.75 0.5 0
1.875 0.5 0
1.5 0.25 0
1.625 0.25 0
1.5 0.375 0
1.625 0.375 0
1.625 0.25 0
1.75 0.25 0
1.625 0.375 0
1.75 0.375 0
1.625 0.375 0
1.75 0.375 0
1.625 0.5 0
1.75 0.5 0
1.5 0.375 0
1.625 0.375 0
1.5 0.5 0
1.625 0.5 0
1.5 0.5 0
1.625 0.5 0
1.5 0.625 0
1.625 0.625 0
1.625 0.5 0
1.75 0.5 0
1.625 0.625 0
1.75 0.625 0
1.625 0.625 0
1.75 0.625 0
1.625 0.75 0
1.75 0.75 0
1.5 0.625 0
1.625 0.625 0
1.5 0.75 0
1.625 0.75 0
1.75 0.5 0
1.875 0.5 0
1.75 0.625 0
1.875 0.625 0
1.875 0.5 0
2 0.5 0
1.875 0.625 0
2 0.625 0
1.875 0.625 0
2 0.625 0
1.875 0.75 0
2 0.75 0
1.75 0.625 0
1.875 0.625 0
1.75 0.75 0
1.875 0.75 0
1.75 0.75 0
1.875 0.75 0
1.75 0.875 0
1.875 0.875 0
1.875 0.75 0
2 0.75 0
1.875 0.875 0
2 0.875 0
1.875 0.875 0
2 0.875 0
1.875 1 0
2 1 0
1.75 0.875 0
1.875 0.875 0
1.75 1 0
1.875 1 0
1.5 0.75 0
1.625 0.75 0
1.5 0.875 0
1.625 0.875 0
1.625 0.75 0
1.75 0.75 0
1.625 0.875 0
1.75 0.875 0
1.625 0.875 0
1.75 0.875 0
1.625 1 0
1.75 1 0
1.5 0.875 0
1.625 0.875 0
1.5 1 0
1.625 1 0
1 0.5 0
1.125 0.5 0
1 0.625 0
1.125 0.625 0
1.125 0.5 0
1.25 0.5 0
1.125 0.625 0
1.25 0.625 0
1.125 0.625 0
1.25 0.625 0
1.125 0.75 0
1.25 0.75 0
1 0.625 0
1.125 0.625 0
1 0.75 0
1.125 0.75 0
1.25 0.5 0
1.375 0.5 0
1.25 0.625 0
1.375 0.625 0
1.375 0.5 0
1.5 0.5 0
1.375 0.625 0
1.5 0.625 0
1.375 0.625 0
1.5 0.625 0
1.375 0.75 0
1.5 0.75 0
1.25 0.625 0
1.375 0.625 0
1.25 0.75 0
1.375 0.75 0
1.25 0.75 0
1.375 0.75 0
1.25 0.875 0
1.375 0.875 0
1.375 0.75 0
1.5 0.75 0
1.375 0.875 0
1.5 0.875 0
1.375 0.875 0
1.5 0.875 0
1.375 1 0
1.5 1 0
1.25 0.875 0
1.375 0.875 0
1.25 1 0
1.375 1 0
1 0.75 0
1.125 0.75 0
1 0.875 0
1.125 0.875 0
1.125 0.75 0
1.25 0.75 0
1.125 0.875 0
1.25 0.875 0
1.125 0.875 0
1.25 0.875 0
1.125 1 0
1.25 1 0
1 0.875 0
1.125 0.875 0
1 1 0
1.125 1 0
2 0 0
2.125 0 0
2 0.125 0
2.125 0.125 0
2.125 0 0
2.25 0 0
2.125 0.125 0
2.25 0.125 0
2.125 0.125 0
2.25 0.125 0
2.125 0.25 0
2.25 0.25 0
2 0.125 0
2.125 0.125 0
2 0.25 0
2.125 0.25 0
2.25 0 0
2.375 0 0
2.25 0.125 0
2.375 0.125 0
2.375 0 0
2.5 0 0
2.375 0.125 0
2.5 0.125 0
2.375 0.125 0
2.5 0.125 0
2.375 0.25 0
2.5 0.25 0
2.25 0.125 0
2.375 0.125 0
2.25 0.25 0
2.375 0.25 0
2.25 0.25 0
2.375 0.25 0
2.25 0.375 0
2.375 0.375 0
2.375 0.25 0
2.5 0.25 0
2.375 0.375 0
2.5 0.375 0
2.375 0.375 0
2.5 0.375 0
2.375 0.5 0
2.5 0.5 0
2.25 0.375 0
2.375 0.375 0
2.25 0.5 0
2.375 0.5 0
2 0.25 0
2.125 0.25 0
2 0.375 0
2.125 0.375 0
2.125 0.25 0
2.25 0.25 0
2.125 0.375 0
2.25 0.375 0
2.125 0.375 0
2.25 0.375 0
2.125 0.5 0
2.25 0.5 0
2 0.375 0
2.125 0.375 0
2 0.5 0
2.125 0.5 0
2.5 0 0
2.625 0 0
2.5 0.125 0
2.625 0.125 0
2.625 0 0
2.75 0 0
2.625 0.125 0
2.75 0.125 0
2.625 0.125 0
2.75 0.125 0
2.625 0.25 0
2.75 0.25 0
2.5 0.125 0
2.625 0.125 0
2.5 0.25 0
2.625 0.25 0
2.75 0 0
2.875 0 0
2.75 0.125 0
2.875 0.125 0
2.875 0 0
3 0 0
2.875 0.125 0
3 0.125 0
2.875 0.125 0
3 0.125 0
2.875 0.25 0
3 0.25 0
2.75 0.125 0
2.875 0.125 0
2.75 0.25 0
2.875 0.25 0
2.75 0.25 0
2.875 0.25 0
2.75 0.375 0
2.875 0.375 0
2.875 0.25 0
3 0.25 0
2.875 0.375 0
3 0.375 0
2.875 0.375 0
3 0.375 0
2.875 0.5 0
3 0.5 0
2.75 0.375 0
2.875 0.375 0
2.75 0.5 0
2.875 0.5 0
2.5 0.25 0
2.625 0.25 0
2.5 0.375 0
2.625 0.375 0
2.625 0.25 0
2.75 0.25 0
2.625 0.375 0
2.75 0.375 0
2.625 0.375 0
2.75 0.375 0
2.625 0.5 0
2.75 0.5 0
2.5 0.375 0
2.625 0.375 0
2.5 0.5 0
2.625 0.5 0
2.5 0.5 0
2.625 0.5 0
2.5 0.625 0
2.625 0.625 0
2.625 0.5 0
2.75 0.5 0
2.625 0.625 0
2.75 0.625 0
2.625 0.625 0
2.75 0.625 0
2.625 0.75 0
2.75 0.75 0
2.5 0.625 0
2.625 0.625 0
2.5 0.75 0
2.625 0.75 0
2.75 0.5 0
2.875 0.5 0
2.75 0.625 0
2.875 0.625 0
2.875 0.5 0
3 0.5 0
2.875 0.625 0
3 0.625 0
2.875 0.625 0
3 0.625 0
2.875 0.75 0
3 0.75 0
2.75 0.625 0
2.875 0.625 0
2.75 0.75 0
2.875 0.75 0
2.75 0.75 0
2.875 0.75 0
2.75 0.875 0
2.875 0.875 0
2.875 0.75 0
3 0.75 0
2.875 0.875 0
3 0.875 0
2.875 0.875 0
3 0.875 0
2.875 1 0
3 1 0
2.75 0.875 0
2.875 0.875 0
2.75 1 0
2.875 1 0
2.5 0.75 0
2.625 0.75 0
2.5 0.875 0
2.625 0.875 0
2.625 0.75 0
2.75 0.75 0
2.625 0.875 0
2.75 0.875 0
2.625 0.875 0
2.75 0.875 0
2.625 1 0
2.75 1 0
2.5 0.875 0
2.625 0.875 0
2.5 1 0
2.625 1 0
2 0.5 0
2.125 0.5 0
2 0.625 0
2.125 0.625 0
2.125 0.5 0
2.25 0.5 0
2.125 0.625 0
2.25 0.625 0
2.125 0.625 0
2.25 0.625 0
2.125 0.75 0
2.25 0.75 0
2 0.625 0
2.125 0.625 0
2 0.75 0
2.125 0.75 0
2.25 0.5 0
2.375 0.5 0
2.25 0.625 0
2.375 0.625 0
2.375 0.5 0
2.5 0.5 0
2.375 0.625 0
2.5 0.625 0
2.375 0.625 0
2.5 0.625 0
2.375 0.75 0
2.5 0.75 0
2.25 0.625 0
2.375 0.625 0
2.25 0.75 0
2.375 0.75 0
2.25 0.75 0
2.375 0.75 0
2.25 0.875 0
2.375 0.875 0
2.375 0.75 0
2.5 0.75 0
2.375 0.875 0
2.5 0.875 0
2.375 0.875 0
2.5 0.875 0
2.375 1 0
2.5 1 0
2.25 0.875 0
2.375 0.875 0
2.25 1 0
2.375 1 0
2 0.75 0
2.125 0.75 0
2 0.875 0
2.125 0.875 0
2.125 0.75 0
2.25 0.75 0
2.125 0.875 0
2.25 0.875 0
2.125 0.875 0
2.25 0.875 0
2.125 1 0
2.25 1 0
2 0.875 0
2.125 0.875 0
2 1 0
2.125 1 0
3 0 0
3.125 0 0
3 0.125 0
3.125 0.125 0
3.125 0 0
3.25 0 0
3.125 0.125 0
3.25 0.125 0
3.125 0.125 0
3.25 0.125 0
3.125 0.25 0
3.25 0.25 0
3 0.125 0
3.125 0.125 0
3 0.25 0
3.125 0.25 0
3.25 0 0
3.375 0 0
3.25 0.125 0
3.375 0.125 0
3.375 0 0
3.5 0 0
3.375 0.125 0
3.5 0.125 0
3.375 0.125 0
3.5 0.125 0
3.375 0.25 0
3.5 0.25 0
3.25 0.125 0
3.375 0.125 0
3.25 0.25 0
3.375 0.25 0
3.25 0.25 0
3.375 0.25 0
3.25 0.375 0
3.375 0.375 0
3.375 0.25 0
3.5 0.25 0
3.375 0.375 0
3.5 0.375 0
3.375 0.375 0
3.5 0.375 0
3.375 0.5 0
3.5 0.5 0
3.25 0.375 0
3.375 0.375 0
3.25 0.5 0
[...]
<CellData Scalars="attribute">
<DataArray type="Int32" Name="attribute" format="ascii">
1
1
1
1
1
1
1
1
1
1
1
1
1
1
1
1
1
1
1
1
1
1
1
1
1
1
1
1
1
1
1
1
1
1
1
1
1
1
1
1
1
1
1
1
1
1
1
1
1
1
1
1
1
1
1
1
1
1
1
1
1
1
1
1
1
1
1
1
1
1
1
1
1
1
1
1
1
1
1
1
1
1
1
1
1
1
1
1
1
1
1
1
1
1
1
1
1
1
1
1
1
1
1
1
1
1
1
1
1
1
1
1
1
1
1
1
1
1
1
1
1
1
1
1
1
1
1
1
1
1
1
1
1
1
1
1
1
1
1
1
1
1
1
1
1
1
1
1
1
1
1
1
1
1
1
1
1
1
1
1
1
1
1
1
1
1
1
1
1
1
1
1
1
1
1
1
1
1
1
1
1
1
1
1
1
1
1
1
1
1
1
1
1
1
1
1
1
1
1
1
1
1
1
1
1
1
1
1
1
1
1
1
1
1
1
1
1
1
1
1
1
1
1
1
1
1
1
1
1
1
1
1
1
1
1
1
1
1
1
1
1
1
1
1
1
1
1
1
1
1
1
1
1
1
1
1
2
2
2
2
2
2
2
2
2
2
2
2
2
2
2
2
2
2
2
2
2
2
2
2
2
2
2
2
2
2
2
2
2
2
2
2
2
2
2
2
2
2
2
2
2
2
2
2
2
2
2
2
2
2
2
2
2
2
2
2
2
2
2
2
2
2
2
2
2
2
2
2
2
2
2
2
2
2
2
2
2
2
2
2
2
2
2
2
2
2
2
2
2
2
2
2
2
2
2
2
2
2
2
2
2
2
2
2
2
2
2
2
2
2
2
2
2
2
2
2
2
2
2
2
2
2
2
2
2
2
2
2
2
2
2
2
2
2
2
2
2
2
2
2
2
2
2
2
2
2
2
2
2
2
2
2
2
2
2
2
2
2
2
2
2
2
2
2
2
2
2
2
2
2
2
2
2
2
2
2
2
2
2
2
2
2
2
2
2
2
2
2
2
2
2
2
2
2
2
2
2
2
2
2
2
2
2
2
2
2
2
2
2
2
2
2
2
2
2
2
2
2
2
2
2
2
2
2
2
2
2
2
2
2
2
2
2
2
2
2
2
2
2
2
2
2
2
2
2
2
2
2
2
2
2
2
</DataArray>
</CellData>
<PointData >
<DataArray type="Float64" Name="Pressure" NumberOfComponents="1" format="ascii" >
-0.000383461
-5.07467e-07
-0.000627497
-8.40048e-07
-5.07467e-07
2.72949e-11
-8.40048e-07
4.72682e-11
-8.40048e-07
4.72682e-11
-5.63963e-07
3.2099e-11
-0.000627497
-8.40048e-07
-0.000418337
-5.63963e-07
2.72949e-11
-9.3398e-16
4.72682e-11
-1.6676e-15
-9.3398e-16
3.2487e-20
-1.6676e-15
6.0138e-20
-1.6676e-15
6.0138e-20
-1.16114e-15
4.30088e-20
4.72682e-11
-1.6676e-15
3.2099e-11
-1.16114e-15
3.2099e-11
-1.16114e-15
1.64496e-11
-5.93333e-16
-1.16114e-15
4.30088e-20
-5.93333e-16
2.20002e-20
-5.93333e-16
2.20002e-20
-1.96422e-17
6.97934e-22
1.64496e-11
-5.93333e-16
5.80003e-13
-1.96422e-17
-0.000418337
-5.63963e-07
-0.000209174
-2.86377e-07
-5.63963e-07
3.2099e-11
-2.86377e-07
1.64496e-11
-2.86377e-07
1.64496e-11
-6.34281e-09
5.80003e-13
-0.000209174
-2.86377e-07
-7.8046e-09
-6.34281e-09
3.2487e-20
-5.86775e-25
6.0138e-20
-1.12577e-24
-5.86775e-25
1.84072e-29
-1.12577e-24
3.55101e-29
-1.12577e-24
3.55101e-29
-8.34012e-25
2.66831e-29
6.0138e-20
-1.12577e-24
4.30088e-20
-8.34012e-25
1.84072e-29
-1.4082e-34
3.55101e-29
-2.99579e-34
-1.4082e-34
6.7925e-39
-2.99579e-34
1.32994e-38
-2.99579e-34
1.32994e-38
-2.42248e-34
1.02988e-38
3.55101e-29
-2.99579e-34
2.66831e-29
-2.42248e-34
2.66831e-29
-2.42248e-34
1.38722e-29
-1.27733e-34
-2.42248e-34
1.02988e-38
-1.27733e-34
5.46928e-39
-1.27733e-34
5.46928e-39
-3.68278e-36
1.39255e-40
1.38722e-29
-1.27733e-34
3.97892e-31
-3.68278e-36
4.30088e-20
-8.34012e-25
2.20002e-20
-4.29244e-25
-8.34012e-25
2.66831e-29
-4.29244e-25
1.38722e-29
-4.29244e-25
1.38722e-29
-1.31104e-26
3.97892e-31
2.20002e-20
-4.29244e-25
6.97934e-22
-1.31104e-26
6.97934e-22
-1.31104e-26
-2.09014e-20
4.0881e-25
-1.31104e-26
3.97892e-31
4.0881e-25
-1.32652e-29
4.0881e-25
-1.32652e-29
8.31022e-25
-2.66125e-29
-2.09014e-20
4.0881e-25
-4.28066e-20
8.31022e-25
3.97892e-31
-3.68278e-36
-1.32652e-29
1.22154e-34
-3.68278e-36
1.39255e-40
1.22154e-34
-5.26283e-39
1.22154e-34
-5.26283e-39
2.41594e-34
-1.02822e-38
-1.32652e-29
1.22154e-34
-2.66125e-29
2.41594e-34
-2.66125e-29
2.41594e-34
-3.60768e-29
3.04143e-34
2.41594e-34
-1.02822e-38
3.04143e-34
-1.34855e-38
3.04143e-34
-1.34855e-38
1.43894e-34
-6.92398e-39
-3.60768e-29
3.04143e-34
-1.88215e-29
1.43894e-34
-4.28066e-20
8.31022e-25
-6.12101e-20
1.14494e-24
8.31022e-25
-2.66125e-29
1.14494e-24
-3.60768e-29
1.14494e-24
-3.60768e-29
6.01018e-25
-1.88215e-29
-6.12101e-20
1.14494e-24
-3.33413e-20
6.01018e-25
-7.8046e-09
-6.34281e-09
0.000209161
2.76141e-07
-6.34281e-09
5.80003e-13
2.76141e-07
-1.55156e-11
2.76141e-07
-1.55156e-11
5.61073e-07
-3.18423e-11
0.000209161
2.76141e-07
0.000418333
5.61073e-07
5.80003e-13
-1.96422e-17
-1.55156e-11
5.62019e-16
-1.96422e-17
6.97934e-22
5.62019e-16
-2.09014e-20
5.62019e-16
-2.09014e-20
1.15386e-15
-4.28066e-20
-1.55156e-11
5.62019e-16
-3.18423e-11
1.15386e-15
-3.18423e-11
1.15386e-15
-4.8143e-11
1.69863e-15
1.15386e-15
-4.28066e-20
1.69863e-15
-6.12101e-20
1.69863e-15
-6.12101e-20
9.604e-16
-3.33413e-20
-4.8143e-11
1.69863e-15
-2.81908e-11
9.604e-16
0.000418333
5.61073e-07
0.000627509
8.49501e-07
5.61073e-07
-3.18423e-11
8.49501e-07
-4.8143e-11
8.49501e-07
-4.8143e-11
5.17482e-07
-2.81908e-11
0.000627509
8.49501e-07
0.000383473
5.17482e-07
6.7925e-39
8.88814e-45
1.32994e-38
3.33083e-45
8.88814e-45
1.96644e-48
3.33083e-45
3.81585e-48
3.33083e-45
3.81585e-48
-5.61985e-45
2.97799e-48
1.32994e-38
3.33083e-45
1.02988e-38
-5.61985e-45
1.96644e-48
1.57651e-53
3.81585e-48
2.66827e-53
1.57651e-53
4.76768e-58
2.66827e-53
9.08519e-58
2.66827e-53
9.08519e-58
1.84184e-53
7.05185e-58
3.81585e-48
2.66827e-53
2.97799e-48
1.84184e-53
2.97799e-48
1.84184e-53
1.60498e-48
9.60062e-54
1.84184e-53
7.05185e-58
9.60062e-54
3.82359e-58
9.60062e-54
3.82359e-58
1.61439e-55
7.27289e-60
1.60498e-48
9.60062e-54
3.5557e-50
1.61439e-55
1.02988e-38
-5.61985e-45
5.46928e-39
-3.8312e-45
-5.61985e-45
2.97799e-48
-3.8312e-45
1.60498e-48
-3.8312e-45
1.60498e-48
-2.18029e-46
3.5557e-50
5.46928e-39
-3.8312e-45
1.39255e-40
-2.18029e-46
4.76768e-58
5.35829e-63
9.08519e-58
9.60532e-63
5.35829e-63
9.50832e-68
9.60532e-63
1.78585e-67
9.60532e-63
1.78585e-67
7.05714e-63
1.37664e-67
9.08519e-58
9.60532e-63
7.05185e-58
7.05714e-63
9.50832e-68
1.12185e-72
1.78585e-67
2.04841e-72
1.12185e-72
1.51859e-77
2.04841e-72
2.82878e-77
2.04841e-72
2.82878e-77
1.53877e-72
2.17227e-77
1.78585e-67
2.04841e-72
1.37664e-67
1.53877e-72
1.37664e-67
1.53877e-72
7.47456e-68
8.27297e-73
1.53877e-72
2.17227e-77
8.27297e-73
1.1797e-77
8.27297e-73
1.1797e-77
1.18986e-74
1.65251e-79
7.47456e-68
8.27297e-73
1.21762e-69
1.18986e-74
7.05185e-58
7.05714e-63
3.82359e-58
3.7577e-63
7.05714e-63
1.37664e-67
3.7577e-63
7.47456e-68
3.7577e-63
7.47456e-68
6.03828e-65
1.21762e-69
3.82359e-58
3.7577e-63
7.27289e-60
6.03828e-65
7.27289e-60
6.03828e-65
-3.71891e-58
-3.67226e-63
6.03828e-65
1.21762e-69
-3.67226e-63
-7.30053e-68
-3.67226e-63
-7.30053e-68
-7.05944e-63
-1.37616e-67
-3.71891e-58
-3.67226e-63
-7.04741e-58
-7.05944e-63
1.21762e-69
1.18986e-74
-7.30053e-68
-8.10469e-73
1.18986e-74
1.65251e-79
-8.10469e-73
-1.15619e-77
-8.10469e-73
-1.15619e-77
-1.53901e-72
-2.17188e-77
-7.30053e-68
-8.10469e-73
-1.37616e-67
-1.53901e-72
-1.37616e-67
-1.53901e-72
-1.80228e-67
-2.06615e-72
-1.53901e-72
-2.17188e-77
-2.06615e-72
-2.85149e-77
-2.06615e-72
-2.85149e-77
-1.13449e-72
-1.5347e-77
-1.80228e-67
-2.06615e-72
-9.62472e-68
-1.13449e-72
-7.04741e-58
-7.05944e-63
-9.18114e-58
-9.70058e-63
-7.05944e-63
-1.37616e-67
-9.70058e-63
-1.80228e-67
-9.70058e-63
-1.80228e-67
-5.42702e-63
-9.62472e-68
-9.18114e-58
-9.70058e-63
-4.8354e-58
-5.42702e-63
1.39255e-40
-2.18029e-46
-5.26283e-39
3.48995e-45
-2.18029e-46
3.5557e-50
3.48995e-45
-1.55322e-48
3.48995e-45
-1.55322e-48
5.51065e-45
-2.97491e-48
-5.26283e-39
3.48995e-45
-1.02822e-38
5.51065e-45
3.5557e-50
1.61439e-55
-1.55322e-48
-9.37328e-54
1.61439e-55
7.27289e-60
-9.37328e-54
-3.71891e-58
-9.37328e-54
-3.71891e-58
-1.84354e-53
-7.04741e-58
-1.55322e-48
-9.37328e-54
-2.97491e-48
-1.84354e-53
-2.97491e-48
-1.84354e-53
-3.86225e-48
-2.69838e-53
-1.84354e-53
-7.04741e-58
-2.69838e-53
-9.18114e-58
-2.69838e-53
-9.18114e-58
-1.59912e-53
-4.8354e-58
-3.86225e-48
-2.69838e-53
-1.99904e-48
-1.59912e-53
-1.02822e-38
5.51065e-45
-1.34855e-38
-3.34996e-45
5.51065e-45
-2.97491e-48
-3.34996e-45
-3.86225e-48
-3.34996e-45
-3.86225e-48
-8.97648e-45
-1.99904e-48
-1.34855e-38
-3.34996e-45
-6.92398e-39
-8.97648e-45
1.51859e-77
1.69609e-82
2.82878e-77
3.11975e-82
1.69609e-82
1.92834e-87
3.11975e-82
3.57738e-87
3.11975e-82
3.57738e-87
2.36843e-82
2.74386e-87
2.82878e-77
3.11975e-82
2.17227e-77
2.36843e-82
1.92834e-87
1.96915e-92
3.57738e-87
3.6329e-92
1.96915e-92
1.96003e-97
3.6329e-92
3.62901e-97
3.6329e-92
3.62901e-97
2.77334e-92
2.78385e-97
3.57738e-87
3.6329e-92
2.74386e-87
2.77334e-92
2.74386e-87
2.77334e-92
1.49044e-87
1.50321e-92
2.77334e-92
2.78385e-97
1.50321e-92
1.51264e-97
1.50321e-92
1.51264e-97
1.67165e-94
1.58926e-99
1.49044e-87
1.50321e-92
1.80452e-89
1.67165e-94
2.17227e-77
2.36843e-82
1.1797e-77
1.28003e-82
2.36843e-82
2.74386e-87
1.28003e-82
1.49044e-87
1.28003e-82
1.49044e-87
1.62334e-84
1.80452e-89
1.1797e-77
1.28003e-82
1.65251e-79
1.62334e-84
1.96003e-97
1.81454e-102
3.62901e-97
3.35146e-102
1.81454e-102
1.61393e-107
3.35146e-102
2.98517e-107
3.35146e-102
2.98517e-107
2.56647e-102
2.29139e-107
3.62901e-97
3.35146e-102
2.78385e-97
2.56647e-102
1.61393e-107
1.35588e-112
2.98517e-107
2.5051e-112
1.35588e-112
1.09037e-117
2.5051e-112
2.01557e-117
2.5051e-112
2.01557e-117
1.92191e-112
1.54822e-117
2.98517e-107
2.5051e-112
2.29139e-107
1.92191e-112
2.29139e-107
1.92191e-112
1.24542e-107
1.04425e-112
1.92191e-112
1.54822e-117
1.04425e-112
8.41672e-118
1.04425e-112
8.41672e-118
8.87907e-115
6.70737e-120
1.24542e-107
1.04425e-112
1.13859e-109
8.87907e-115
2.78385e-97
2.56647e-102
1.51264e-97
1.39328e-102
2.56647e-102
2.29139e-107
1.39328e-102
1.24542e-107
1.39328e-102
1.24542e-107
1.35545e-104
1.13859e-109
1.51264e-97
1.39328e-102
1.58926e-99
1.35545e-104
1.58926e-99
1.35545e-104
-1.49012e-97
-1.37411e-102
1.35545e-104
1.13859e-109
-1.37411e-102
-1.2293e-107
-1.37411e-102
-1.2293e-107
-2.5665e-102
-2.29133e-107
-1.49012e-97
-1.37411e-102
-2.78372e-97
-2.5665e-102
1.13859e-109
8.87907e-115
-1.2293e-107
-1.03169e-112
8.87907e-115
6.70737e-120
-1.03169e-112
-8.32177e-118
-1.03169e-112
-8.32177e-118
-1.92191e-112
-1.54818e-117
-1.2293e-107
-1.03169e-112
-2.29133e-107
-1.92191e-112
-2.29133e-107
-1.92191e-112
-3.00112e-107
-2.51762e-112
-1.92191e-112
-1.54818e-117
-2.51762e-112
-2.02496e-117
-2.51762e-112
-2.02496e-117
-1.36474e-112
-1.09703e-117
-3.00112e-107
-2.51762e-112
-1.62523e-107
-1.36474e-112
-2.78372e-97
-2.5665e-102
-3.65122e-97
-3.37067e-102
-2.5665e-102
-2.29133e-107
-3.37067e-102
-3.00112e-107
-3.37067e-102
-3.00112e-107
-1.82814e-102
-1.62523e-107
-3.65122e-97
-3.37067e-102
-1.97578e-97
-1.82814e-102
1.65251e-79
1.62334e-84
-1.15619e-77
-1.25708e-82
1.62334e-84
1.80452e-89
-1.25708e-82
-1.46484e-87
-1.25708e-82
-1.46484e-87
-2.36861e-82
-2.74362e-87
-1.15619e-77
-1.25708e-82
-2.17188e-77
-2.36861e-82
1.80452e-89
1.67165e-94
-1.46484e-87
-1.47958e-92
1.67165e-94
1.58926e-99
-1.47958e-92
-1.49012e-97
-1.47958e-92
-1.49012e-97
-2.77345e-92
-2.78372e-97
-1.46484e-87
-1.47958e-92
-2.74362e-87
-2.77345e-92
-2.74362e-87
-2.77345e-92
-3.60247e-87
-3.6568e-92
-2.77345e-92
-2.78372e-97
-3.6568e-92
-3.65122e-97
-3.6568e-92
-3.65122e-97
-1.98607e-92
-1.97578e-97
-3.60247e-87
-3.6568e-92
-1.94613e-87
-1.98607e-92
-2.17188e-77
-2.36861e-82
-2.85149e-77
-3.1433e-82
-2.36861e-82
-2.74362e-87
-3.1433e-82
-3.60247e-87
-3.1433e-82
-3.60247e-87
-1.71279e-82
-1.94613e-87
-2.85149e-77
-3.1433e-82
-1.5347e-77
-1.71279e-82
1.09037e-117
8.34572e-123
2.01557e-117
1.54187e-122
8.34572e-123
6.11566e-128
1.54187e-122
1.13e-127
1.54187e-122
1.13e-127
1.18431e-122
8.68532e-128
2.01557e-117
1.54187e-122
1.54822e-117
1.18431e-122
6.11566e-128
4.28415e-133
1.13e-127
7.91341e-133
4.28415e-133
2.87735e-138
7.91341e-133
5.31465e-138
7.91341e-133
5.31465e-138
6.08309e-133
4.08702e-138
1.13e-127
7.91341e-133
8.68532e-128
6.08309e-133
8.68532e-128
6.08309e-133
4.72224e-128
3.3072e-133
6.08309e-133
4.08702e-138
3.3072e-133
2.22221e-138
3.3072e-133
2.22221e-138
2.1474e-135
1.34989e-140
4.72224e-128
3.3072e-133
3.28419e-130
2.1474e-135
1.54822e-117
1.18431e-122
8.41672e-118
6.43755e-123
1.18431e-122
8.68532e-128
6.43755e-123
4.72224e-128
6.43755e-123
4.72224e-128
4.78307e-125
3.28419e-130
8.41672e-118
6.43755e-123
6.70737e-120
4.78307e-125
2.87735e-138
1.85284e-143
5.31465e-138
3.42158e-143
1.85284e-143
1.14584e-148
3.42158e-143
2.11579e-148
3.42158e-143
2.11579e-148
2.63164e-143
1.62773e-148
5.31465e-138
3.42158e-143
4.08702e-138
2.63164e-143
1.14584e-148
6.80904e-154
2.11579e-148
1.25708e-153
6.80904e-154
3.8923e-159
1.25708e-153
7.1851e-159
1.25708e-153
7.1851e-159
9.67243e-154
5.52946e-159
2.11579e-148
1.25708e-153
1.62773e-148
9.67243e-154
1.62773e-148
9.67243e-154
8.85015e-149
5.25877e-154
9.67243e-154
5.52946e-159
5.25877e-154
3.00623e-159
5.25877e-154
3.00623e-159
2.61013e-156
1.39574e-161
8.85015e-149
5.25877e-154
4.69873e-151
2.61013e-156
4.08702e-138
2.63164e-143
2.22221e-138
1.43082e-143
2.63164e-143
1.62773e-148
1.43082e-143
8.85015e-149
1.43082e-143
8.85015e-149
8.12127e-146
4.69873e-151
2.22221e-138
1.43082e-143
1.34989e-140
8.12127e-146
1.34989e-140
8.12127e-146
-2.20309e-138
-1.41932e-143
8.12127e-146
4.69873e-151
-1.41932e-143
-8.78358e-149
-1.41932e-143
-8.78358e-149
-2.63157e-143
-1.62769e-148
-2.20309e-138
-1.41932e-143
-4.08692e-138
-2.63157e-143
4.69873e-151
2.61013e-156
-8.78358e-149
-5.22178e-154
2.61013e-156
1.39574e-161
-5.22178e-154
-2.98644e-159
-5.22178e-154
-2.98644e-159
-9.67214e-154
-5.52928e-159
-8.78358e-149
-5.22178e-154
-1.62769e-148
-9.67214e-154
-1.62769e-148
-9.67214e-154
-2.12233e-148
-1.26071e-153
-9.67214e-154
-5.52928e-159
-1.26071e-153
-7.20446e-159
-1.26071e-153
-7.20446e-159
-6.83473e-154
-3.90601e-159
-2.12233e-148
-1.26071e-153
-1.15047e-148
-6.83473e-154
-4.08692e-138
-2.63157e-143
-5.33349e-138
-3.43291e-143
-2.63157e-143
-1.62769e-148
-3.43291e-143
-2.12233e-148
-3.43291e-143
-2.12233e-148
-1.86086e-143
-1.15047e-148
-5.33349e-138
-3.43291e-143
-2.89069e-138
-1.86086e-143
6.70737e-120
4.78307e-125
-8.32177e-118
-6.36988e-123
4.78307e-125
3.28419e-130
-6.36988e-123
-4.67575e-128
-6.36988e-123
-4.67575e-128
-1.1843e-122
-8.68513e-128
-8.32177e-118
-6.36988e-123
-1.54818e-117
-1.1843e-122
3.28419e-130
2.1474e-135
-4.67575e-128
-3.2768e-133
2.1474e-135
1.34989e-140
-3.2768e-133
-2.20309e-138
-3.2768e-133
-2.20309e-138
-6.08297e-133
-4.08692e-138
-4.67575e-128
-3.2768e-133
-8.68513e-128
-6.08297e-133
-8.68513e-128
-6.08297e-133
-1.13459e-127
-7.94346e-133
-6.08297e-133
-4.08692e-138
-7.94346e-133
-5.33349e-138
-7.94346e-133
-5.33349e-138
-4.30543e-133
-2.89069e-138
-1.13459e-127
-7.94346e-133
-6.14819e-128
-4.30543e-133
-1.54818e-117
-1.1843e-122
-2.02496e-117
-1.54858e-122
-1.1843e-122
-8.68513e-128
-1.54858e-122
-1.13459e-127
-1.54858e-122
-1.13459e-127
-8.39327e-123
-6.14819e-128
-2.02496e-117
-1.54858e-122
-1.09703e-117
-8.39327e-123
3.8923e-159
2.14173e-164
7.1851e-159
3.95305e-164
2.14173e-164
1.13535e-169
3.95305e-164
2.0953e-169
3.95305e-164
2.0953e-169
3.04253e-164
1.61289e-169
7.1851e-159
3.95305e-164
5.52946e-159
3.04253e-164
1.13535e-169
5.80193e-175
2.0953e-169
1.07062e-174
5.80193e-175
2.86014e-180
1.07062e-174
5.27721e-180
1.07062e-174
5.27721e-180
8.24212e-175
4.06302e-180
2.0953e-169
1.07062e-174
1.61289e-169
8.24212e-175
1.61289e-169
8.24212e-175
8.76813e-170
4.48042e-175
8.24212e-175
4.06302e-180
4.48042e-175
2.20855e-180
4.48042e-175
2.20855e-180
1.70263e-177
7.8534e-183
8.76813e-170
4.48042e-175
3.56176e-172
1.70263e-177
5.52946e-159
3.04253e-164
3.00623e-159
1.65407e-164
3.04253e-164
1.61289e-169
1.65407e-164
8.76813e-170
1.65407e-164
8.76813e-170
7.18203e-167
3.56176e-172
3.00623e-159
1.65407e-164
1.39574e-161
7.18203e-167
2.86014e-180
1.36088e-185
5.27721e-180
2.51068e-185
1.36088e-185
6.25338e-191
2.51068e-185
1.15357e-190
2.51068e-185
1.15357e-190
1.93317e-185
8.8829e-191
5.27721e-180
2.51068e-185
4.06302e-180
1.93317e-185
6.25338e-191
2.77642e-196
1.15357e-190
5.1212e-196
2.77642e-196
1.19161e-201
5.1212e-196
2.19777e-201
5.1212e-196
2.19777e-201
3.94378e-196
1.69258e-201
1.15357e-190
5.1212e-196
8.8829e-191
3.94378e-196
8.8829e-191
3.94378e-196
4.82803e-191
2.14341e-196
3.94378e-196
1.69258e-201
2.14341e-196
9.19861e-202
2.14341e-196
9.19861e-202
6.24836e-199
2.51044e-204
4.82803e-191
2.14341e-196
1.50362e-193
6.24836e-199
4.06302e-180
1.93317e-185
2.20855e-180
1.05077e-185
1.93317e-185
8.8829e-191
1.05077e-185
4.82803e-191
1.05077e-185
4.82803e-191
3.49643e-188
1.50362e-193
2.20855e-180
1.05077e-185
7.8534e-183
3.49643e-188
7.8534e-183
3.49643e-188
-2.1974e-180
-1.0458e-185
3.49643e-188
1.50362e-193
-1.0458e-185
-4.80666e-191
-1.0458e-185
-4.80666e-191
-1.93309e-185
-8.88253e-191
-2.1974e-180
-1.0458e-185
-4.06286e-180
-1.93309e-185
1.50362e-193
6.24836e-199
-4.80666e-191
-2.13453e-196
6.24836e-199
2.51044e-204
-2.13453e-196
-9.16289e-202
-2.13453e-196
-9.16289e-202
-3.94361e-196
-1.69251e-201
-4.80666e-191
-2.13453e-196
-8.88253e-191
-3.94361e-196
-8.88253e-191
-3.94361e-196
-1.15562e-190
-5.12972e-196
-3.94361e-196
-1.69251e-201
-5.12972e-196
-2.20118e-201
-5.12972e-196
-2.20118e-201
-2.78246e-196
-1.19403e-201
-1.15562e-190
-5.12972e-196
-6.26794e-191
-2.78246e-196
-4.06286e-180
-1.93309e-185
-5.28801e-180
-2.51547e-185
-1.93309e-185
-8.88253e-191
-2.51547e-185
-1.15562e-190
-2.51547e-185
-1.15562e-190
-1.36428e-185
-6.26794e-191
-5.28801e-180
-2.51547e-185
-2.86779e-180
-1.36428e-185
1.39574e-161
7.18203e-167
-2.98644e-159
-1.64388e-164
7.18203e-167
3.56176e-172
-1.64388e-164
-8.7176e-170
-1.64388e-164
-8.7176e-170
-3.04243e-164
-1.61283e-169
-2.98644e-159
-1.64388e-164
-5.52928e-159
-3.04243e-164
3.56176e-172
1.70263e-177
-8.7176e-170
-4.45626e-175
1.70263e-177
7.8534e-183
-4.45626e-175
-2.1974e-180
-4.45626e-175
-2.1974e-180
-8.24181e-175
-4.06286e-180
-8.7176e-170
-4.45626e-175
-1.61283e-169
-8.24181e-175
-1.61283e-169
-8.24181e-175
-2.10022e-169
-1.07297e-174
-8.24181e-175
-4.06286e-180
-1.07297e-174
-5.28801e-180
-1.07297e-174
-5.28801e-180
-5.81855e-175
-2.86779e-180
-2.10022e-169
-1.07297e-174
-1.13883e-169
-5.81855e-175
-5.52928e-159
-3.04243e-164
-7.20446e-159
-3.96299e-164
-3.04243e-164
-1.61283e-169
-3.96299e-164
-2.10022e-169
-3.96299e-164
-2.10022e-169
-2.14878e-164
-1.13883e-169
-7.20446e-159
-3.96299e-164
-3.90601e-159
-2.14878e-164
1.19161e-201
4.94592e-207
2.19777e-201
9.12131e-207
4.94592e-207
1.98604e-212
9.12131e-207
3.66239e-212
9.12131e-207
3.66239e-212
7.02503e-207
2.82083e-212
2.19777e-201
9.12131e-207
1.69258e-201
7.02503e-207
1.98604e-212
7.71814e-218
3.66239e-212
1.42317e-217
7.71814e-218
2.90372e-223
1.42317e-217
5.35386e-223
1.42317e-217
5.35386e-223
1.09619e-217
4.12398e-223
3.66239e-212
1.42317e-217
2.82083e-212
1.09619e-217
2.82083e-212
1.09619e-217
1.53288e-212
5.95661e-218
1.09619e-217
4.12398e-223
5.95661e-218
2.24084e-223
5.95661e-218
2.24084e-223
1.33512e-220
4.70521e-226
1.53288e-212
5.95661e-218
3.66827e-215
1.33512e-220
1.69258e-201
7.02503e-207
9.19861e-202
3.81768e-207
7.02503e-207
2.82083e-212
3.81768e-207
1.53288e-212
3.81768e-207
1.53288e-212
9.75556e-210
3.66827e-215
9.19861e-202
3.81768e-207
2.51044e-204
9.75556e-210
2.90372e-223
1.05788e-228
5.35386e-223
1.95039e-228
1.05788e-228
3.73308e-234
1.95039e-228
6.88213e-234
1.95039e-228
6.88213e-234
1.5024e-228
5.30154e-234
5.35386e-223
1.95039e-228
4.12398e-223
1.5024e-228
3.73308e-234
1.27625e-239
6.88213e-234
2.35269e-239
1.27625e-239
4.22783e-245
2.35269e-239
7.79333e-245
2.35269e-239
7.79333e-245
1.81241e-239
6.00383e-245
6.88213e-234
2.35269e-239
5.30154e-234
1.81241e-239
5.30154e-234
1.81241e-239
2.88046e-234
9.84693e-240
1.81241e-239
6.00383e-245
9.84693e-240
3.26179e-245
9.84693e-240
3.26179e-245
1.70184e-242
5.28538e-248
2.88046e-234
9.84693e-240
5.31097e-237
1.70184e-242
4.12398e-223
1.5024e-228
2.24084e-223
8.16322e-229
1.5024e-228
5.30154e-234
8.16322e-229
2.88046e-234
8.16322e-229
2.88046e-234
1.60605e-231
5.31097e-237
2.24084e-223
8.16322e-229
4.70521e-226
1.60605e-231
4.70521e-226
1.60605e-231
-2.23412e-223
-8.14029e-229
1.60605e-231
5.31097e-237
-8.14029e-229
-2.87287e-234
-8.14029e-229
-2.87287e-234
-1.50232e-228
-5.30127e-234
-2.23412e-223
-8.14029e-229
-4.12377e-223
-1.50232e-228
5.31097e-237
1.70184e-242
-2.87287e-234
-9.82258e-240
1.70184e-242
5.28538e-248
-9.82258e-240
-3.25423e-245
-9.82258e-240
-3.25423e-245
-1.81232e-239
-6.00352e-245
-2.87287e-234
-9.82258e-240
-5.30127e-234
-1.81232e-239
-5.30127e-234
-1.81232e-239
-6.88918e-234
-2.35494e-239
-1.81232e-239
-6.00352e-245
-2.35494e-239
-7.80028e-245
-2.35494e-239
-7.80028e-245
-1.27784e-239
-4.23274e-245
-6.88918e-234
-2.35494e-239
-3.73807e-234
-1.27784e-239
-4.12377e-223