<VTKFile type="UnstructuredGrid" version="0.1" byte_order="LittleEndian">
<UnstructuredGrid>
<Piece NumberOfPoints="2048" NumberOfCells="512">
<Points>
<DataArray type="Float64" NumberOfComponents="3" format="ascii">
0 0 0
0.125 0 0
0 0.125 0
0.125 0.125 0
0.125 0 0
0.25 0 0
0.125 0.125 0
0.25 0.125 0
0.125 0.125 0
0.25 0.125 0
0.125 0.25 0
0.25 0.25 0
0 0.125 0
0.125 0.125 0
0 0.25 0
0.125 0.25 0
0.25 0 0
0.375 0 0
0.25 0.125 0
0.375 0.125 0
0.375 0 0
0.5 0 0
0.375 0.125 0
0.5 0.125 0
0.375 0.125 0
0.5 0.125 0
0.375 0.25 0
0.5 0.25 0
0.25 0.125 0
0.375 0.125 0
0.25 0.25 0
0.375 0.25 0
0.25 0.25 0
0.375 0.25 0
0.25 0.375 0
0.375 0.375 0
0.375 0.25 0
0.5 0.25 0
0.375 0.375 0
0.5 0.375 0
0.375 0.375 0
0.5 0.375 0
0.375 0.5 0
0.5 0.5 0
0.25 0.375 0
0.375 0.375 0
0.25 0.5 0
0.375 0.5 0
0 0.25 0
0.125 0.25 0
0 0.375 0
0.125 0.375 0
0.125 0.25 0
0.25 0.25 0
0.125 0.375 0
0.25 0.375 0
0.125 0.375 0
0.25 0.375 0
0.125 0.5 0
0.25 0.5 0
0 0.375 0
0.125 0.375 0
0 0.5 0
0.125 0.5 0
0.5 0 0
0.625 0 0
0.5 0.125 0
0.625 0.125 0
0.625 0 0
0.75 0 0
0.625 0.125 0
0.75 0.125 0
0.625 0.125 0
0.75 0.125 0
0.625 0.25 0
0.75 0.25 0
0.5 0.125 0
0.625 0.125 0
0.5 0.25 0
0.625 0.25 0
0.75 0 0
0.875 0 0
0.75 0.125 0
0.875 0.125 0
0.875 0 0
1 0 0
0.875 0.125 0
1 0.125 0
0.875 0.125 0
1 0.125 0
0.875 0.25 0
1 0.25 0
0.75 0.125 0
0.875 0.125 0
0.75 0.25 0
0.875 0.25 0
0.75 0.25 0
0.875 0.25 0
0.75 0.375 0
0.875 0.375 0
0.875 0.25 0
1 0.25 0
0.875 0.375 0
1 0.375 0
0.875 0.375 0
1 0.375 0
0.875 0.5 0
1 0.5 0
0.75 0.375 0
0.875 0.375 0
0.75 0.5 0
0.875 0.5 0
0.5 0.25 0
0.625 0.25 0
0.5 0.375 0
0.625 0.375 0
0.625 0.25 0
0.75 0.25 0
0.625 0.375 0
0.75 0.375 0
0.625 0.375 0
0.75 0.375 0
0.625 0.5 0
0.75 0.5 0
0.5 0.375 0
0.625 0.375 0
0.5 0.5 0
0.625 0.5 0
0.5 0.5 0
0.625 0.5 0
0.5 0.625 0
0.625 0.625 0
0.625 0.5 0
0.75 0.5 0
0.625 0.625 0
0.75 0.625 0
0.625 0.625 0
0.75 0.625 0
0.625 0.75 0
0.75 0.75 0
0.5 0.625 0
0.625 0.625 0
0.5 0.75 0
0.625 0.75 0
0.75 0.5 0
0.875 0.5 0
0.75 0.625 0
0.875 0.625 0
0.875 0.5 0
1 0.5 0
0.875 0.625 0
1 0.625 0
0.875 0.625 0
1 0.625 0
0.875 0.75 0
1 0.75 0
0.75 0.625 0
0.875 0.625 0
0.75 0.75 0
0.875 0.75 0
0.75 0.75 0
0.875 0.75 0
0.75 0.875 0
0.875 0.875 0
0.875 0.75 0
1 0.75 0
0.875 0.875 0
1 0.875 0
0.875 0.875 0
1 0.875 0
0.875 1 0
1 1 0
0.75 0.875 0
0.875 0.875 0
0.75 1 0
0.875 1 0
0.5 0.75 0
0.625 0.75 0
0.5 0.875 0
0.625 0.875 0
0.625 0.75 0
0.75 0.75 0
0.625 0.875 0
0.75 0.875 0
0.625 0.875 0
0.75 0.875 0
0.625 1 0
0.75 1 0
0.5 0.875 0
0.625 0.875 0
0.5 1 0
0.625 1 0
0 0.5 0
0.125 0.5 0
0 0.625 0
0.125 0.625 0
0.125 0.5 0
0.25 0.5 0
0.125 0.625 0
0.25 0.625 0
0.125 0.625 0
0.25 0.625 0
0.125 0.75 0
0.25 0.75 0
0 0.625 0
0.125 0.625 0
0 0.75 0
0.125 0.75 0
0.25 0.5 0
0.375 0.5 0
0.25 0.625 0
0.375 0.625 0
0.375 0.5 0
0.5 0.5 0
0.375 0.625 0
0.5 0.625 0
0.375 0.625 0
0.5 0.625 0
0.375 0.75 0
0.5 0.75 0
0.25 0.625 0
0.375 0.625 0
0.25 0.75 0
0.375 0.75 0
0.25 0.75 0
0.375 0.75 0
0.25 0.875 0
0.375 0.875 0
0.375 0.75 0
0.5 0.75 0
0.375 0.875 0
0.5 0.875 0
0.375 0.875 0
0.5 0.875 0
0.375 1 0
0.5 1 0
0.25 0.875 0
0.375 0.875 0
0.25 1 0
0.375 1 0
0 0.75 0
0.125 0.75 0
0 0.875 0
0.125 0.875 0
0.125 0.75 0
0.25 0.75 0
0.125 0.875 0
0.25 0.875 0
0.125 0.875 0
0.25 0.875 0
0.125 1 0
0.25 1 0
0 0.875 0
0.125 0.875 0
0 1 0
0.125 1 0
1 0 0
1.125 0 0
1 0.125 0
1.125 0.125 0
1.125 0 0
1.25 0 0
1.125 0.125 0
1.25 0.125 0
1.125 0.125 0
1.25 0.125 0
1.125 0.25 0
1.25 0.25 0
1 0.125 0
1.125 0.125 0
1 0.25 0
1.125 0.25 0
1.25 0 0
1.375 0 0
1.25 0.125 0
1.375 0.125 0
1.375 0 0
1.5 0 0
1.375 0.125 0
1.5 0.125 0
1.375 0.125 0
1.5 0.125 0
1.375 0.25 0
1.5 0.25 0
1.25 0.125 0
1.375 0.125 0
1.25 0.25 0
1.375 0.25 0
1.25 0.25 0
1.375 0.25 0
1.25 0.375 0
1.375 0.375 0
1.375 0.25 0
1.5 0.25 0
1.375 0.375 0
1.5 0.375 0
1.375 0.375 0
1.5 0.375 0
1.375 0.5 0
1.5 0.5 0
1.25 0.375 0
1.375 0.375 0
1.25 0.5 0
1.375 0.5 0
1 0.25 0
1.125 0.25 0
1 0.375 0
1.125 0.375 0
1.125 0.25 0
1.25 0.25 0
1.125 0.375 0
1.25 0.375 0
1.125 0.375 0
1.25 0.375 0
1.125 0.5 0
1.25 0.5 0
1 0.375 0
1.125 0.375 0
1 0.5 0
1.125 0.5 0
1.5 0 0
1.625 0 0
1.5 0.125 0
1.625 0.125 0
1.625 0 0
1.75 0 0
1.625 0.125 0
1.75 0.125 0
1.625 0.125 0
1.75 0.125 0
1.625 0.25 0
1.75 0.25 0
1.5 0.125 0
1.625 0.125 0
1.5 0.25 0
1.625 0.25 0
1.75 0 0
1.875 0 0
1.75 0.125 0
1.875 0.125 0
1.875 0 0
2 0 0
1.875 0.125 0
2 0.125 0
1.875 0.125 0
2 0.125 0
1.875 0.25 0
2 0.25 0
1.75 0.125 0
1.875 0.125 0
1.75 0.25 0
1.875 0.25 0
1.75 0.25 0
1.875 0.25 0
1.75 0.375 0
1.875 0.375 0
1.875 0.25 0
2 0.25 0
1.875 0.375 0
2 0.375 0
1.875 0.375 0
2 0.375 0
1.875 0.5 0
2 0.5 0
1.75 0.375 0
1.875 0.375 0
1.75 0.5 0
1.875 0.5 0
1.5 0.25 0
1.625 0.25 0
1.5 0.375 0
1.625 0.375 0
1.625 0.25 0
1.75 0.25 0
1.625 0.375 0
1.75 0.375 0
1.625 0.375 0
1.75 0.375 0
1.625 0.5 0
1.75 0.5 0
1.5 0.375 0
1.625 0.375 0
1.5 0.5 0
1.625 0.5 0
1.5 0.5 0
1.625 0.5 0
1.5 0.625 0
1.625 0.625 0
1.625 0.5 0
1.75 0.5 0
1.625 0.625 0
1.75 0.625 0
1.625 0.625 0
1.75 0.625 0
1.625 0.75 0
1.75 0.75 0
1.5 0.625 0
1.625 0.625 0
1.5 0.75 0
1.625 0.75 0
1.75 0.5 0
1.875 0.5 0
1.75 0.625 0
1.875 0.625 0
1.875 0.5 0
2 0.5 0
1.875 0.625 0
2 0.625 0
1.875 0.625 0
2 0.625 0
1.875 0.75 0
2 0.75 0
1.75 0.625 0
1.875 0.625 0
1.75 0.75 0
1.875 0.75 0
1.75 0.75 0
1.875 0.75 0
1.75 0.875 0
1.875 0.875 0
1.875 0.75 0
2 0.75 0
1.875 0.875 0
2 0.875 0
1.875 0.875 0
2 0.875 0
1.875 1 0
2 1 0
1.75 0.875 0
1.875 0.875 0
1.75 1 0
1.875 1 0
1.5 0.75 0
1.625 0.75 0
1.5 0.875 0
1.625 0.875 0
1.625 0.75 0
1.75 0.75 0
1.625 0.875 0
1.75 0.875 0
1.625 0.875 0
1.75 0.875 0
1.625 1 0
1.75 1 0
1.5 0.875 0
1.625 0.875 0
1.5 1 0
1.625 1 0
1 0.5 0
1.125 0.5 0
1 0.625 0
1.125 0.625 0
1.125 0.5 0
1.25 0.5 0
1.125 0.625 0
1.25 0.625 0
1.125 0.625 0
1.25 0.625 0
1.125 0.75 0
1.25 0.75 0
1 0.625 0
1.125 0.625 0
1 0.75 0
1.125 0.75 0
1.25 0.5 0
1.375 0.5 0
1.25 0.625 0
1.375 0.625 0
1.375 0.5 0
1.5 0.5 0
1.375 0.625 0
1.5 0.625 0
1.375 0.625 0
1.5 0.625 0
1.375 0.75 0
1.5 0.75 0
1.25 0.625 0
1.375 0.625 0
1.25 0.75 0
1.375 0.75 0
1.25 0.75 0
1.375 0.75 0
1.25 0.875 0
1.375 0.875 0
1.375 0.75 0
1.5 0.75 0
1.375 0.875 0
1.5 0.875 0
1.375 0.875 0
1.5 0.875 0
1.375 1 0
1.5 1 0
1.25 0.875 0
1.375 0.875 0
1.25 1 0
1.375 1 0
1 0.75 0
1.125 0.75 0
1 0.875 0
1.125 0.875 0
1.125 0.75 0
1.25 0.75 0
1.125 0.875 0
1.25 0.875 0
1.125 0.875 0
1.25 0.875 0
1.125 1 0
1.25 1 0
1 0.875 0
1.125 0.875 0
1 1 0
1.125 1 0
2 0 0
2.125 0 0
2 0.125 0
2.125 0.125 0
2.125 0 0
2.25 0 0
2.125 0.125 0
2.25 0.125 0
2.125 0.125 0
2.25 0.125 0
2.125 0.25 0
2.25 0.25 0
2 0.125 0
2.125 0.125 0
2 0.25 0
2.125 0.25 0
2.25 0 0
2.375 0 0
2.25 0.125 0
2.375 0.125 0
2.375 0 0
2.5 0 0
2.375 0.125 0
2.5 0.125 0
2.375 0.125 0
2.5 0.125 0
2.375 0.25 0
2.5 0.25 0
2.25 0.125 0
2.375 0.125 0
2.25 0.25 0
2.375 0.25 0
2.25 0.25 0
2.375 0.25 0
2.25 0.375 0
2.375 0.375 0
2.375 0.25 0
2.5 0.25 0
2.375 0.375 0
2.5 0.375 0
2.375 0.375 0
2.5 0.375 0
2.375 0.5 0
2.5 0.5 0
2.25 0.375 0
2.375 0.375 0
2.25 0.5 0
2.375 0.5 0
2 0.25 0
2.125 0.25 0
2 0.375 0
2.125 0.375 0
2.125 0.25 0
2.25 0.25 0
2.125 0.375 0
2.25 0.375 0
2.125 0.375 0
2.25 0.375 0
2.125 0.5 0
2.25 0.5 0
2 0.375 0
2.125 0.375 0
2 0.5 0
2.125 0.5 0
2.5 0 0
2.625 0 0
2.5 0.125 0
2.625 0.125 0
2.625 0 0
2.75 0 0
2.625 0.125 0
2.75 0.125 0
2.625 0.125 0
2.75 0.125 0
2.625 0.25 0
2.75 0.25 0
2.5 0.125 0
2.625 0.125 0
2.5 0.25 0
2.625 0.25 0
2.75 0 0
2.875 0 0
2.75 0.125 0
2.875 0.125 0
2.875 0 0
3 0 0
2.875 0.125 0
3 0.125 0
2.875 0.125 0
3 0.125 0
2.875 0.25 0
3 0.25 0
2.75 0.125 0
2.875 0.125 0
2.75 0.25 0
2.875 0.25 0
2.75 0.25 0
2.875 0.25 0
2.75 0.375 0
2.875 0.375 0
2.875 0.25 0
3 0.25 0
2.875 0.375 0
3 0.375 0
2.875 0.375 0
3 0.375 0
2.875 0.5 0
3 0.5 0
2.75 0.375 0
2.875 0.375 0
2.75 0.5 0
2.875 0.5 0
2.5 0.25 0
2.625 0.25 0
2.5 0.375 0
2.625 0.375 0
2.625 0.25 0
2.75 0.25 0
2.625 0.375 0
2.75 0.375 0
2.625 0.375 0
2.75 0.375 0
2.625 0.5 0
2.75 0.5 0
2.5 0.375 0
2.625 0.375 0
2.5 0.5 0
2.625 0.5 0
2.5 0.5 0
2.625 0.5 0
2.5 0.625 0
2.625 0.625 0
2.625 0.5 0
2.75 0.5 0
2.625 0.625 0
2.75 0.625 0
2.625 0.625 0
2.75 0.625 0
2.625 0.75 0
2.75 0.75 0
2.5 0.625 0
2.625 0.625 0
2.5 0.75 0
2.625 0.75 0
2.75 0.5 0
2.875 0.5 0
2.75 0.625 0
2.875 0.625 0
2.875 0.5 0
3 0.5 0
2.875 0.625 0
3 0.625 0
2.875 0.625 0
3 0.625 0
2.875 0.75 0
3 0.75 0
2.75 0.625 0
2.875 0.625 0
2.75 0.75 0
2.875 0.75 0
2.75 0.75 0
2.875 0.75 0
2.75 0.875 0
2.875 0.875 0
2.875 0.75 0
3 0.75 0
2.875 0.875 0
3 0.875 0
2.875 0.875 0
3 0.875 0
2.875 1 0
3 1 0
2.75 0.875 0
2.875 0.875 0
2.75 1 0
2.875 1 0
2.5 0.75 0
2.625 0.75 0
2.5 0.875 0
2.625 0.875 0
2.625 0.75 0
2.75 0.75 0
2.625 0.875 0
2.75 0.875 0
2.625 0.875 0
2.75 0.875 0
2.625 1 0
2.75 1 0
2.5 0.875 0
2.625 0.875 0
2.5 1 0
2.625 1 0
2 0.5 0
2.125 0.5 0
2 0.625 0
2.125 0.625 0
2.125 0.5 0
2.25 0.5 0
2.125 0.625 0
2.25 0.625 0
2.125 0.625 0
2.25 0.625 0
2.125 0.75 0
2.25 0.75 0
2 0.625 0
2.125 0.625 0
2 0.75 0
2.125 0.75 0
2.25 0.5 0
2.375 0.5 0
2.25 0.625 0
2.375 0.625 0
2.375 0.5 0
2.5 0.5 0
2.375 0.625 0
2.5 0.625 0
2.375 0.625 0
2.5 0.625 0
2.375 0.75 0
2.5 0.75 0
2.25 0.625 0
2.375 0.625 0
2.25 0.75 0
2.375 0.75 0
2.25 0.75 0
2.375 0.75 0
2.25 0.875 0
2.375 0.875 0
2.375 0.75 0
2.5 0.75 0
2.375 0.875 0
2.5 0.875 0
2.375 0.875 0
2.5 0.875 0
2.375 1 0
2.5 1 0
2.25 0.875 0
2.375 0.875 0
2.25 1 0
2.375 1 0
2 0.75 0
2.125 0.75 0
2 0.875 0
2.125 0.875 0
2.125 0.75 0
2.25 0.75 0
2.125 0.875 0
2.25 0.875 0
2.125 0.875 0
2.25 0.875 0
2.125 1 0
2.25 1 0
2 0.875 0
2.125 0.875 0
2 1 0
2.125 1 0
3 0 0
3.125 0 0
3 0.125 0
3.125 0.125 0
3.125 0 0
3.25 0 0
3.125 0.125 0
3.25 0.125 0
3.125 0.125 0
3.25 0.125 0
3.125 0.25 0
3.25 0.25 0
3 0.125 0
3.125 0.125 0
3 0.25 0
3.125 0.25 0
3.25 0 0
3.375 0 0
3.25 0.125 0
3.375 0.125 0
3.375 0 0
3.5 0 0
3.375 0.125 0
3.5 0.125 0
3.375 0.125 0
3.5 0.125 0
3.375 0.25 0
3.5 0.25 0
3.25 0.125 0
3.375 0.125 0
3.25 0.25 0
3.375 0.25 0
3.25 0.25 0
3.375 0.25 0
3.25 0.375 0
3.375 0.375 0
3.375 0.25 0
3.5 0.25 0
3.375 0.375 0
3.5 0.375 0
3.375 0.375 0
3.5 0.375 0
3.375 0.5 0
3.5 0.5 0
3.25 0.375 0
3.375 0.375 0
3.25 0.5 0
[...]
<CellData Scalars="attribute">
<DataArray type="Int32" Name="attribute" format="ascii">
1
1
1
1
1
1
1
1
1
1
1
1
1
1
1
1
1
1
1
1
1
1
1
1
1
1
1
1
1
1
1
1
1
1
1
1
1
1
1
1
1
1
1
1
1
1
1
1
1
1
1
1
1
1
1
1
1
1
1
1
1
1
1
1
1
1
1
1
1
1
1
1
1
1
1
1
1
1
1
1
1
1
1
1
1
1
1
1
1
1
1
1
1
1
1
1
1
1
1
1
1
1
1
1
1
1
1
1
1
1
1
1
1
1
1
1
1
1
1
1
1
1
1
1
1
1
1
1
1
1
1
1
1
1
1
1
1
1
1
1
1
1
1
1
1
1
1
1
1
1
1
1
1
1
1
1
1
1
1
1
1
1
1
1
1
1
1
1
1
1
1
1
1
1
1
1
1
1
1
1
1
1
1
1
1
1
1
1
1
1
1
1
1
1
1
1
1
1
1
1
1
1
1
1
1
1
1
1
1
1
1
1
1
1
1
1
1
1
1
1
1
1
1
1
1
1
1
1
1
1
1
1
1
1
1
1
1
1
1
1
1
1
1
1
1
1
1
1
1
1
1
1
1
1
1
1
2
2
2
2
2
2
2
2
2
2
2
2
2
2
2
2
2
2
2
2
2
2
2
2
2
2
2
2
2
2
2
2
2
2
2
2
2
2
2
2
2
2
2
2
2
2
2
2
2
2
2
2
2
2
2
2
2
2
2
2
2
2
2
2
2
2
2
2
2
2
2
2
2
2
2
2
2
2
2
2
2
2
2
2
2
2
2
2
2
2
2
2
2
2
2
2
2
2
2
2
2
2
2
2
2
2
2
2
2
2
2
2
2
2
2
2
2
2
2
2
2
2
2
2
2
2
2
2
2
2
2
2
2
2
2
2
2
2
2
2
2
2
2
2
2
2
2
2
2
2
2
2
2
2
2
2
2
2
2
2
2
2
2
2
2
2
2
2
2
2
2
2
2
2
2
2
2
2
2
2
2
2
2
2
2
2
2
2
2
2
2
2
2
2
2
2
2
2
2
2
2
2
2
2
2
2
2
2
2
2
2
2
2
2
2
2
2
2
2
2
2
2
2
2
2
2
2
2
2
2
2
2
2
2
2
2
2
2
2
2
2
2
2
2
2
2
2
2
2
2
2
2
2
2
2
2
</DataArray>
</CellData>
<PointData >
<DataArray type="Float64" Name="Pressure" NumberOfComponents="1" format="ascii" >
-0.00109179
-2.51094e-06
-0.00178665
-4.15663e-06
-2.51094e-06
2.24078e-10
-4.15663e-06
3.88066e-10
-4.15663e-06
3.88066e-10
-2.79055e-06
2.63532e-10
-0.00178665
-4.15663e-06
-0.00119113
-2.79055e-06
2.24078e-10
-1.25394e-14
3.88066e-10
-2.23909e-14
-1.25394e-14
7.09062e-19
-2.23909e-14
1.31276e-18
-2.23909e-14
1.31276e-18
-1.55916e-14
9.38919e-19
3.88066e-10
-2.23909e-14
2.63532e-10
-1.55916e-14
2.63532e-10
-1.55916e-14
1.35054e-10
-7.96726e-15
-1.55916e-14
9.38919e-19
-7.96726e-15
4.8029e-19
-7.96726e-15
4.8029e-19
-2.63915e-16
1.52428e-20
1.35054e-10
-7.96726e-15
4.76629e-12
-2.63915e-16
-0.00119113
-2.79055e-06
-0.00059559
-1.41703e-06
-2.79055e-06
2.63532e-10
-1.41703e-06
1.35054e-10
-1.41703e-06
1.35054e-10
-3.13894e-08
4.76629e-12
-0.00059559
-1.41703e-06
-3.86172e-08
-3.13894e-08
7.09062e-19
-2.07405e-23
1.31276e-18
-3.98014e-23
-2.07405e-23
1.05466e-27
-3.98014e-23
2.03485e-27
-3.98014e-23
2.03485e-27
-2.94908e-23
1.52917e-27
1.31276e-18
-3.98014e-23
9.38919e-19
-2.94908e-23
1.05466e-27
-1.30222e-32
2.03485e-27
-2.77223e-32
-1.30222e-32
1.02184e-36
-2.77223e-32
2.00082e-36
-2.77223e-32
2.00082e-36
-2.24268e-32
1.54947e-36
2.03485e-27
-2.77223e-32
1.52917e-27
-2.24268e-32
1.52917e-27
-2.24268e-32
7.95018e-28
-1.18263e-32
-2.24268e-32
1.54947e-36
-1.18263e-32
8.22877e-37
-1.18263e-32
8.22877e-37
-3.41189e-34
2.09528e-38
7.95018e-28
-1.18263e-32
2.28082e-29
-3.41189e-34
9.38919e-19
-2.94908e-23
4.8029e-19
-1.51785e-23
-2.94908e-23
1.52917e-27
-1.51785e-23
7.95018e-28
-1.51785e-23
7.95018e-28
-4.63817e-25
2.28082e-29
4.8029e-19
-1.51785e-23
1.52428e-20
-4.63817e-25
1.52428e-20
-4.63817e-25
-4.56294e-19
1.44556e-23
-4.63817e-25
2.28082e-29
1.44556e-23
-7.60222e-28
1.44556e-23
-7.60222e-28
2.9385e-23
-1.52513e-27
-4.56294e-19
1.44556e-23
-9.34505e-19
2.9385e-23
2.28082e-29
-3.41189e-34
-7.60222e-28
1.13093e-32
-3.41189e-34
2.09528e-38
1.13093e-32
-7.91813e-37
1.13093e-32
-7.91813e-37
2.23662e-32
-1.54696e-36
-7.60222e-28
1.13093e-32
-1.52513e-27
2.23662e-32
-1.52513e-27
2.23662e-32
-2.06733e-27
2.81448e-32
2.23662e-32
-1.54696e-36
2.81448e-32
-2.02881e-36
2.81448e-32
-2.02881e-36
1.33066e-32
-1.04162e-36
-2.06733e-27
2.81448e-32
-1.0784e-27
1.33066e-32
-9.34505e-19
2.9385e-23
-1.33617e-18
4.04792e-23
2.9385e-23
-1.52513e-27
4.04792e-23
-2.06733e-27
4.04792e-23
-2.06733e-27
2.12442e-23
-1.0784e-27
-1.33617e-18
4.04792e-23
-7.27714e-19
2.12442e-23
-3.86172e-08
-3.13894e-08
0.000595528
1.36637e-06
-3.13894e-08
4.76629e-12
1.36637e-06
-1.27379e-10
1.36637e-06
-1.27379e-10
2.77626e-06
-2.61424e-10
0.000595528
1.36637e-06
0.00119111
2.77626e-06
4.76629e-12
-2.63915e-16
-1.27379e-10
7.54653e-15
-2.63915e-16
1.52428e-20
7.54653e-15
-4.56294e-19
7.54653e-15
-4.56294e-19
1.54938e-14
-9.34505e-19
-1.27379e-10
7.54653e-15
-2.61424e-10
1.54938e-14
-2.61424e-10
1.54938e-14
-3.95255e-10
2.28079e-14
1.54938e-14
-9.34505e-19
2.28079e-14
-1.33617e-18
2.28079e-14
-1.33617e-18
1.28943e-14
-7.27714e-19
-3.95255e-10
2.28079e-14
-2.3144e-10
1.28943e-14
0.00119111
2.77626e-06
0.00178671
4.20341e-06
2.77626e-06
-2.61424e-10
4.20341e-06
-3.95255e-10
4.20341e-06
-3.95255e-10
2.5605e-06
-2.3144e-10
0.00178671
4.20341e-06
0.00109186
2.5605e-06
1.02184e-36
2.22109e-42
2.00082e-36
9.07603e-43
2.22109e-42
7.80362e-46
9.07603e-43
1.51424e-45
9.07603e-43
1.51424e-45
-1.30224e-42
1.18173e-45
2.00082e-36
9.07603e-43
1.54947e-36
-1.30224e-42
7.80362e-46
1.02142e-50
1.51424e-45
1.72944e-50
1.02142e-50
5.02399e-55
1.72944e-50
9.57312e-55
1.72944e-50
9.57312e-55
1.19425e-50
7.43024e-55
1.51424e-45
1.72944e-50
1.18173e-45
1.19425e-50
1.18173e-45
1.19425e-50
6.36891e-46
6.22571e-51
1.19425e-50
7.43024e-55
6.22571e-51
4.02871e-55
6.22571e-51
4.02871e-55
1.04761e-52
7.66226e-57
6.36891e-46
6.22571e-51
1.41091e-47
1.04761e-52
1.54947e-36
-1.30224e-42
8.22877e-37
-8.9871e-43
-1.30224e-42
1.18173e-45
-8.9871e-43
6.36891e-46
-8.9871e-43
6.36891e-46
-5.24365e-44
1.41091e-47
8.22877e-37
-8.9871e-43
2.09528e-38
-5.24365e-44
5.02399e-55
9.23669e-60
9.57312e-55
1.65595e-59
9.23669e-60
2.68137e-64
1.65595e-59
5.03598e-64
1.65595e-59
5.03598e-64
1.21677e-59
3.88189e-64
9.57312e-55
1.65595e-59
7.43024e-55
1.21677e-59
2.68137e-64
5.19435e-69
5.03598e-64
9.48487e-69
5.19435e-69
1.1562e-73
9.48487e-69
2.15369e-73
9.48487e-69
2.15369e-73
7.12533e-69
1.65382e-73
5.03598e-64
9.48487e-69
3.88189e-64
7.12533e-69
3.88189e-64
7.12533e-69
2.10766e-64
3.83088e-69
7.12533e-69
1.65382e-73
3.83088e-69
8.98137e-74
3.83088e-69
8.98137e-74
5.51e-71
1.258e-75
2.10766e-64
3.83088e-69
3.43308e-66
5.51e-71
7.43024e-55
1.21677e-59
4.02871e-55
6.47909e-60
1.21677e-59
3.88189e-64
6.47909e-60
2.10766e-64
6.47909e-60
2.10766e-64
1.04128e-61
3.43308e-66
4.02871e-55
6.47909e-60
7.66226e-57
1.04128e-61
7.66226e-57
1.04128e-61
-3.91842e-55
-6.33175e-60
1.04128e-61
3.43308e-66
-6.33175e-60
-2.0586e-64
-6.33175e-60
-2.0586e-64
-1.21716e-59
-3.88054e-64
-3.91842e-55
-6.33175e-60
-7.42556e-55
-1.21716e-59
3.43308e-66
5.51e-71
-2.0586e-64
-3.75295e-69
5.51e-71
1.258e-75
-3.75295e-69
-8.80238e-74
-3.75295e-69
-8.80238e-74
-7.12644e-69
-1.65353e-73
-2.0586e-64
-3.75295e-69
-3.88054e-64
-7.12644e-69
-3.88054e-64
-7.12644e-69
-5.08231e-64
-9.567e-69
-7.12644e-69
-1.65353e-73
-9.567e-69
-2.17099e-73
-9.567e-69
-2.17099e-73
-5.25287e-69
-1.16847e-73
-5.08231e-64
-9.567e-69
-2.7142e-64
-5.25287e-69
-7.42556e-55
-1.21716e-59
-9.67423e-55
-1.67238e-59
-1.21716e-59
-3.88054e-64
-1.67238e-59
-5.08231e-64
-1.67238e-59
-5.08231e-64
-9.35517e-60
-2.7142e-64
-9.67423e-55
-1.67238e-59
-5.09535e-55
-9.35517e-60
2.09528e-38
-5.24365e-44
-7.91813e-37
8.16564e-43
-5.24365e-44
1.41091e-47
8.16564e-43
-6.16355e-46
8.16564e-43
-6.16355e-46
1.27563e-42
-1.1805e-45
-7.91813e-37
8.16564e-43
-1.54696e-36
1.27563e-42
1.41091e-47
1.04761e-52
-6.16355e-46
-6.07817e-51
1.04761e-52
7.66226e-57
-6.07817e-51
-3.91842e-55
-6.07817e-51
-3.91842e-55
-1.19534e-50
-7.42556e-55
-6.16355e-46
-6.07817e-51
-1.1805e-45
-1.19534e-50
-1.1805e-45
-1.19534e-50
-1.53265e-45
-1.74895e-50
-1.19534e-50
-7.42556e-55
-1.74895e-50
-9.67423e-55
-1.74895e-50
-9.67423e-55
-1.03607e-50
-5.09535e-55
-1.53265e-45
-1.74895e-50
-7.93297e-46
-1.03607e-50
-1.54696e-36
1.27563e-42
-2.02881e-36
-9.13465e-43
1.27563e-42
-1.1805e-45
-9.13465e-43
-1.53265e-45
-9.13465e-43
-1.53265e-45
-2.24353e-42
-7.93297e-46
-2.02881e-36
-9.13465e-43
-1.04162e-36
-2.24353e-42
1.1562e-73
2.12977e-78
2.15369e-73
3.91753e-78
2.12977e-78
4.0023e-83
3.91753e-78
7.42486e-83
3.91753e-78
7.42486e-83
2.97414e-78
5.69482e-83
2.15369e-73
3.91753e-78
1.65382e-73
2.97414e-78
4.0023e-83
6.77433e-88
7.42486e-83
1.24982e-87
6.77433e-88
1.12052e-92
1.24982e-87
2.07464e-92
1.24982e-87
2.07464e-92
9.54114e-88
1.59147e-92
7.42486e-83
1.24982e-87
5.69482e-83
9.54114e-88
5.69482e-83
9.54114e-88
3.09337e-83
5.17151e-88
9.54114e-88
1.59147e-92
5.17151e-88
8.64744e-93
5.17151e-88
8.64744e-93
5.75092e-90
9.08502e-95
3.09337e-83
5.17151e-88
3.74498e-85
5.75092e-90
1.65382e-73
2.97414e-78
8.98137e-74
1.6074e-78
2.97414e-78
5.69482e-83
1.6074e-78
3.09337e-83
1.6074e-78
3.09337e-83
2.03853e-80
3.74498e-85
8.98137e-74
1.6074e-78
1.258e-75
2.03853e-80
1.12052e-92
1.7287e-97
2.07464e-92
3.19293e-97
1.7287e-97
2.56944e-102
3.19293e-97
4.75251e-102
3.19293e-97
4.75251e-102
2.44508e-97
3.64797e-102
2.07464e-92
3.19293e-97
1.59147e-92
2.44508e-97
2.56944e-102
3.61781e-107
4.75251e-102
6.68422e-107
3.61781e-107
4.89046e-112
6.68422e-107
9.04007e-112
6.68422e-107
9.04007e-112
5.12814e-107
6.94394e-112
4.75251e-102
6.68422e-107
3.64797e-102
5.12814e-107
3.64797e-102
5.12814e-107
1.98276e-102
2.78631e-107
5.12814e-107
6.94394e-112
2.78631e-107
3.775e-112
2.78631e-107
3.775e-112
2.3691e-109
3.00823e-114
1.98276e-102
2.78631e-107
1.8126e-104
2.3691e-109
1.59147e-92
2.44508e-97
8.64744e-93
1.32738e-97
2.44508e-97
3.64797e-102
1.32738e-97
1.98276e-102
1.32738e-97
1.98276e-102
1.29131e-99
1.8126e-104
8.64744e-93
1.32738e-97
9.08502e-95
1.29131e-99
9.08502e-95
1.29131e-99
-8.51872e-93
-1.30913e-97
1.29131e-99
1.8126e-104
-1.30913e-97
-1.95709e-102
-1.30913e-97
-1.95709e-102
-2.44511e-97
-3.64787e-102
-8.51872e-93
-1.30913e-97
-1.5914e-92
-2.44511e-97
1.8126e-104
2.3691e-109
-1.95709e-102
-2.7528e-107
2.3691e-109
3.00823e-114
-2.7528e-107
-3.73242e-112
-2.7528e-107
-3.73242e-112
-5.12813e-107
-6.94379e-112
-1.95709e-102
-2.7528e-107
-3.64787e-102
-5.12813e-107
-3.64787e-102
-5.12813e-107
-4.7779e-102
-6.71762e-107
-5.12813e-107
-6.94379e-112
-6.71762e-107
-9.0822e-112
-6.71762e-107
-9.0822e-112
-3.64146e-107
-4.9203e-112
-4.7779e-102
-6.71762e-107
-2.58743e-102
-3.64146e-107
-1.5914e-92
-2.44511e-97
-2.08734e-92
-3.21124e-97
-2.44511e-97
-3.64787e-102
-3.21124e-97
-4.7779e-102
-3.21124e-97
-4.7779e-102
-1.74166e-97
-2.58743e-102
-2.08734e-92
-3.21124e-97
-1.12952e-92
-1.74166e-97
1.258e-75
2.03853e-80
-8.80238e-74
-1.57858e-78
2.03853e-80
3.74498e-85
-1.57858e-78
-3.04022e-83
-1.57858e-78
-3.04022e-83
-2.97437e-78
-5.69432e-83
-8.80238e-74
-1.57858e-78
-1.65353e-73
-2.97437e-78
3.74498e-85
5.75092e-90
-3.04022e-83
-5.0902e-88
5.75092e-90
9.08502e-95
-5.0902e-88
-8.51872e-93
-5.0902e-88
-8.51872e-93
-9.54149e-88
-1.5914e-92
-3.04022e-83
-5.0902e-88
-5.69432e-83
-9.54149e-88
-5.69432e-83
-9.54149e-88
-7.47692e-83
-1.25804e-87
-9.54149e-88
-1.5914e-92
-1.25804e-87
-2.08734e-92
-1.25804e-87
-2.08734e-92
-6.83256e-88
-1.12952e-92
-7.47692e-83
-1.25804e-87
-4.03922e-83
-6.83256e-88
-1.65353e-73
-2.97437e-78
-2.17099e-73
-3.9471e-78
-2.97437e-78
-5.69432e-83
-3.9471e-78
-7.47692e-83
-3.9471e-78
-7.47692e-83
-2.15074e-78
-4.03922e-83
-2.17099e-73
-3.9471e-78
-1.16847e-73
-2.15074e-78
4.89046e-112
6.31121e-117
9.04007e-112
1.166e-116
6.31121e-117
7.82197e-122
1.166e-116
1.44528e-121
1.166e-116
1.44528e-121
8.95605e-117
1.11086e-121
9.04007e-112
1.166e-116
6.94394e-112
8.95605e-117
7.82197e-122
9.29713e-127
1.44528e-121
1.71731e-126
9.29713e-127
1.06293e-131
1.71731e-126
1.96331e-131
1.71731e-126
1.96331e-131
1.32011e-126
1.5098e-131
1.44528e-121
1.71731e-126
1.11086e-121
1.32011e-126
1.11086e-121
1.32011e-126
6.03978e-122
7.17705e-127
1.32011e-126
1.5098e-131
7.17705e-127
8.20915e-132
7.17705e-127
8.20915e-132
4.66001e-129
4.98654e-134
6.03978e-122
7.17705e-127
4.20037e-124
4.66001e-129
6.94394e-112
8.95605e-117
3.775e-112
4.86823e-117
8.95605e-117
1.11086e-121
4.86823e-117
6.03978e-122
4.86823e-117
6.03978e-122
3.61697e-119
4.20037e-124
3.775e-112
4.86823e-117
3.00823e-114
3.61697e-119
1.06293e-131
1.16905e-136
1.96331e-131
2.15886e-136
1.16905e-136
1.23907e-141
2.15886e-136
2.28794e-141
2.15886e-136
2.28794e-141
1.66045e-136
1.76017e-141
1.96331e-131
2.15886e-136
1.5098e-131
1.66045e-136
1.23907e-141
1.26637e-146
2.28794e-141
2.33796e-146
1.26637e-146
1.24953e-151
2.33796e-146
2.30662e-151
2.33796e-146
2.30662e-151
1.79891e-146
1.77511e-151
2.28794e-141
2.33796e-146
1.76017e-141
1.79891e-146
1.76017e-141
1.79891e-146
9.57024e-142
9.78044e-147
1.79891e-146
1.77511e-151
9.78044e-147
9.65084e-152
9.78044e-147
9.65084e-152
4.85427e-149
4.4806e-154
9.57024e-142
9.78044e-147
5.08089e-144
4.85427e-149
1.5098e-131
1.66045e-136
8.20915e-132
9.02784e-137
1.66045e-136
1.76017e-141
9.02784e-137
9.57024e-142
9.02784e-137
9.57024e-142
5.12401e-139
5.08089e-144
8.20915e-132
9.02784e-137
4.98654e-134
5.12401e-139
4.98654e-134
5.12401e-139
-8.13854e-132
-8.95527e-137
5.12401e-139
5.08089e-144
-8.95527e-137
-9.49825e-142
-8.95527e-137
-9.49825e-142
-1.6604e-136
-1.76012e-141
-8.13854e-132
-8.95527e-137
-1.50977e-131
-1.6604e-136
5.08089e-144
4.85427e-149
-9.49825e-142
-9.71165e-147
4.85427e-149
4.4806e-154
-9.71165e-147
-9.58732e-152
-9.71165e-147
-9.58732e-152
-1.79886e-146
-1.77505e-151
-9.49825e-142
-9.71165e-147
-1.76012e-141
-1.79886e-146
-1.76012e-141
-1.79886e-146
-2.29501e-141
-2.3447e-146
-1.79886e-146
-1.77505e-151
-2.3447e-146
-2.31283e-151
-2.3447e-146
-2.31283e-151
-1.27114e-146
-1.25394e-151
-2.29501e-141
-2.3447e-146
-1.24408e-141
-1.27114e-146
-1.50977e-131
-1.6604e-136
-1.97027e-131
-2.16601e-136
-1.6604e-136
-1.76012e-141
-2.16601e-136
-2.29501e-141
-2.16601e-136
-2.29501e-141
-1.17411e-136
-1.24408e-141
-1.97027e-131
-2.16601e-136
-1.06786e-131
-1.17411e-136
3.00823e-114
3.61697e-119
-3.73242e-112
-4.81706e-117
3.61697e-119
4.20037e-124
-4.81706e-117
-5.98032e-122
-4.81706e-117
-5.98032e-122
-8.95595e-117
-1.11084e-121
-3.73242e-112
-4.81706e-117
-6.94379e-112
-8.95595e-117
4.20037e-124
4.66001e-129
-5.98032e-122
-7.11109e-127
4.66001e-129
4.98654e-134
-7.11109e-127
-8.13854e-132
-7.11109e-127
-8.13854e-132
-1.32008e-126
-1.50977e-131
-5.98032e-122
-7.11109e-127
-1.11084e-121
-1.32008e-126
-1.11084e-121
-1.32008e-126
-1.45115e-121
-1.72383e-126
-1.32008e-126
-1.50977e-131
-1.72383e-126
-1.97027e-131
-1.72383e-126
-1.97027e-131
-9.34331e-127
-1.06786e-131
-1.45115e-121
-1.72383e-126
-7.86358e-122
-9.34331e-127
-6.94379e-112
-8.95595e-117
-9.0822e-112
-1.17108e-116
-8.95595e-117
-1.11084e-121
-1.17108e-116
-1.45115e-121
-1.17108e-116
-1.45115e-121
-6.34717e-117
-7.86358e-122
-9.0822e-112
-1.17108e-116
-4.9203e-112
-6.34717e-117
1.24953e-151
1.1912e-156
2.30662e-151
2.19863e-156
1.1912e-156
1.09818e-161
2.19863e-156
2.02671e-161
2.19863e-156
2.02671e-161
1.69221e-156
1.56009e-161
2.30662e-151
2.19863e-156
1.77511e-151
1.69221e-156
1.09818e-161
9.798e-167
2.02671e-161
1.80802e-166
9.798e-167
8.46667e-172
1.80802e-166
1.56218e-171
1.80802e-166
1.56218e-171
1.39189e-166
1.20275e-171
2.02671e-161
1.80802e-166
1.56009e-161
1.39189e-166
1.56009e-161
1.39189e-166
8.48111e-162
7.56632e-167
1.39189e-166
1.20275e-171
7.56632e-167
6.53784e-172
7.56632e-167
6.53784e-172
2.87524e-169
2.32472e-174
8.48111e-162
7.56632e-167
3.44507e-164
2.87524e-169
1.77511e-151
1.69221e-156
9.65084e-152
9.19969e-157
1.69221e-156
1.56009e-161
9.19969e-157
8.48111e-162
9.19969e-157
8.48111e-162
3.99443e-159
3.44507e-164
9.65084e-152
9.19969e-157
4.4806e-154
3.99443e-159
8.46667e-172
7.09079e-177
1.56218e-171
1.30817e-176
7.09079e-177
5.75941e-182
1.30817e-176
1.06244e-181
1.30817e-176
1.06244e-181
1.00727e-176
8.18124e-182
1.56218e-171
1.30817e-176
1.20275e-171
1.00727e-176
5.75941e-182
4.53975e-187
1.06244e-181
8.37371e-187
4.53975e-187
3.47468e-192
8.37371e-187
6.40859e-192
8.37371e-187
6.40859e-192
6.44851e-187
4.93549e-192
1.06244e-181
8.37371e-187
8.18124e-182
6.44851e-187
8.18124e-182
6.44851e-187
4.44667e-182
3.50472e-187
6.44851e-187
4.93549e-192
3.50472e-187
2.68227e-192
3.50472e-187
2.68227e-192
1.02165e-189
7.32013e-195
4.44667e-182
3.50472e-187
1.38481e-184
1.02165e-189
1.20275e-171
1.00727e-176
6.53784e-172
5.47498e-177
1.00727e-176
8.18124e-182
5.47498e-177
4.44667e-182
5.47498e-177
4.44667e-182
1.82175e-179
1.38481e-184
6.53784e-172
5.47498e-177
2.32472e-174
1.82175e-179
2.32472e-174
1.82175e-179
-6.50483e-172
-5.4491e-177
1.82175e-179
1.38481e-184
-5.4491e-177
-4.42698e-182
-5.4491e-177
-4.42698e-182
-1.00723e-176
-8.18089e-182
-6.50483e-172
-5.4491e-177
-1.2027e-171
-1.00723e-176
1.38481e-184
1.02165e-189
-4.42698e-182
-3.49019e-187
1.02165e-189
7.32013e-195
-3.49019e-187
-2.67186e-192
-3.49019e-187
-2.67186e-192
-6.44823e-187
-4.93527e-192
-4.42698e-182
-3.49019e-187
-8.18089e-182
-6.44823e-187
-8.18089e-182
-6.44823e-187
-1.06434e-181
-8.38764e-187
-6.44823e-187
-4.93527e-192
-8.38764e-187
-6.41854e-192
-8.38764e-187
-6.41854e-192
-4.54961e-187
-3.48173e-192
-1.06434e-181
-8.38764e-187
-5.77282e-182
-4.54961e-187
-1.2027e-171
-1.00723e-176
-1.56537e-171
-1.31067e-176
-1.00723e-176
-8.18089e-182
-1.31067e-176
-1.06434e-181
-1.31067e-176
-1.06434e-181
-7.10848e-177
-5.77282e-182
-1.56537e-171
-1.31067e-176
-8.4893e-172
-7.10848e-177
4.4806e-154
3.99443e-159
-9.58732e-152
-9.14305e-157
3.99443e-159
3.44507e-164
-9.14305e-157
-8.43223e-162
-9.14305e-157
-8.43223e-162
-1.69215e-156
-1.56004e-161
-9.58732e-152
-9.14305e-157
-1.77505e-151
-1.69215e-156
3.44507e-164
2.87524e-169
-8.43223e-162
-7.52551e-167
2.87524e-169
2.32472e-174
-7.52551e-167
-6.50483e-172
-7.52551e-167
-6.50483e-172
-1.39184e-166
-1.2027e-171
-8.43223e-162
-7.52551e-167
-1.56004e-161
-1.39184e-166
-1.56004e-161
-1.39184e-166
-2.03147e-161
-1.81198e-166
-1.39184e-166
-1.2027e-171
-1.81198e-166
-1.56537e-171
-1.81198e-166
-1.56537e-171
-9.82607e-167
-8.4893e-172
-2.03147e-161
-1.81198e-166
-1.10155e-161
-9.82607e-167
-1.77505e-151
-1.69215e-156
-2.31283e-151
-2.20416e-156
-1.69215e-156
-1.56004e-161
-2.20416e-156
-2.03147e-161
-2.20416e-156
-2.03147e-161
-1.19511e-156
-1.10155e-161
-2.31283e-151
-2.20416e-156
-1.25394e-151
-1.19511e-156
3.47468e-192
2.58387e-197
6.40859e-192
4.7652e-197
2.58387e-197
1.8678e-202
4.7652e-197
3.44435e-202
4.7652e-197
3.44435e-202
3.67006e-197
2.65289e-202
6.40859e-192
4.7652e-197
4.93549e-192
3.67006e-197
1.8678e-202
1.31315e-207
3.44435e-202
2.42135e-207
1.31315e-207
8.98319e-213
2.42135e-207
1.65631e-212
2.42135e-207
1.65631e-212
1.86505e-207
1.27583e-212
3.44435e-202
2.42135e-207
2.65289e-202
1.86505e-207
2.65289e-202
1.86505e-207
1.44162e-202
1.01345e-207
1.86505e-207
1.27583e-212
1.01345e-207
6.93244e-213
1.01345e-207
6.93244e-213
2.27149e-210
1.45561e-215
1.44162e-202
1.01345e-207
3.44979e-205
2.27149e-210
4.93549e-192
3.67006e-197
2.68227e-192
1.99446e-197
3.67006e-197
2.65289e-202
1.99446e-197
1.44162e-202
1.99446e-197
1.44162e-202
5.09642e-200
3.44979e-205
2.68227e-192
1.99446e-197
7.32013e-195
5.09642e-200
8.98319e-213
5.98241e-218
1.65631e-212
1.10296e-217
5.98241e-218
3.88007e-223
1.10296e-217
7.15311e-223
1.10296e-217
7.15311e-223
8.4962e-218
5.5103e-223
1.65631e-212
1.10296e-217
1.27583e-212
8.4962e-218
3.88007e-223
2.45188e-228
7.15311e-223
4.5199e-228
2.45188e-228
1.51017e-233
4.5199e-228
2.78376e-233
4.5199e-228
2.78376e-233
3.48195e-228
2.14456e-233
7.15311e-223
4.5199e-228
5.5103e-223
3.48195e-228
5.5103e-223
3.48195e-228
2.99388e-223
1.89176e-228
3.48195e-228
2.14456e-233
1.89176e-228
1.16511e-233
1.89176e-228
1.16511e-233
3.26943e-231
1.88788e-236
2.99388e-223
1.89176e-228
5.51995e-226
3.26943e-231
1.27583e-212
8.4962e-218
6.93244e-213
4.61637e-218
8.4962e-218
5.5103e-223
4.61637e-218
2.99388e-223
4.61637e-218
2.99388e-223
9.08211e-221
5.51995e-226
6.93244e-213
4.61637e-218
1.45561e-215
9.08211e-221
1.45561e-215
9.08211e-221
-6.91167e-213
-4.6034e-218
9.08211e-221
5.51995e-226
-4.6034e-218
-2.98599e-223
-4.6034e-218
-2.98599e-223
-8.49577e-218
-5.51002e-223
-6.91167e-213
-4.6034e-218
-1.27577e-212
-8.49577e-218
5.51995e-226
3.26943e-231
-2.98599e-223
-1.88708e-228
3.26943e-231
1.88788e-236
-1.88708e-228
-1.1624e-233
-1.88708e-228
-1.1624e-233
-3.48177e-228
-2.14444e-233
-2.98599e-223
-1.88708e-228
-5.51002e-223
-3.48177e-228
-5.51002e-223
-3.48177e-228
-7.16044e-223
-4.52422e-228
-3.48177e-228
-2.14444e-233
-4.52422e-228
-2.78624e-233
-4.52422e-228
-2.78624e-233
-2.45493e-228
-1.51192e-233
-7.16044e-223
-4.52422e-228
-3.88525e-223
-2.45493e-228
-1.27577e-212
-8.49577e-218
-1.65826e-212
-1.10417e-217
-8.49577e-218
-5.51002e-223