<VTKFile type="UnstructuredGrid" version="0.1" byte_order="LittleEndian">
<UnstructuredGrid>
<Piece NumberOfPoints="2048" NumberOfCells="512">
<Points>
<DataArray type="Float64" NumberOfComponents="3" format="ascii">
0 0 0
0.125 0 0
0 0.125 0
0.125 0.125 0
0.125 0 0
0.25 0 0
0.125 0.125 0
0.25 0.125 0
0.125 0.125 0
0.25 0.125 0
0.125 0.25 0
0.25 0.25 0
0 0.125 0
0.125 0.125 0
0 0.25 0
0.125 0.25 0
0.25 0 0
0.375 0 0
0.25 0.125 0
0.375 0.125 0
0.375 0 0
0.5 0 0
0.375 0.125 0
0.5 0.125 0
0.375 0.125 0
0.5 0.125 0
0.375 0.25 0
0.5 0.25 0
0.25 0.125 0
0.375 0.125 0
0.25 0.25 0
0.375 0.25 0
0.25 0.25 0
0.375 0.25 0
0.25 0.375 0
0.375 0.375 0
0.375 0.25 0
0.5 0.25 0
0.375 0.375 0
0.5 0.375 0
0.375 0.375 0
0.5 0.375 0
0.375 0.5 0
0.5 0.5 0
0.25 0.375 0
0.375 0.375 0
0.25 0.5 0
0.375 0.5 0
0 0.25 0
0.125 0.25 0
0 0.375 0
0.125 0.375 0
0.125 0.25 0
0.25 0.25 0
0.125 0.375 0
0.25 0.375 0
0.125 0.375 0
0.25 0.375 0
0.125 0.5 0
0.25 0.5 0
0 0.375 0
0.125 0.375 0
0 0.5 0
0.125 0.5 0
0.5 0 0
0.625 0 0
0.5 0.125 0
0.625 0.125 0
0.625 0 0
0.75 0 0
0.625 0.125 0
0.75 0.125 0
0.625 0.125 0
0.75 0.125 0
0.625 0.25 0
0.75 0.25 0
0.5 0.125 0
0.625 0.125 0
0.5 0.25 0
0.625 0.25 0
0.75 0 0
0.875 0 0
0.75 0.125 0
0.875 0.125 0
0.875 0 0
1 0 0
0.875 0.125 0
1 0.125 0
0.875 0.125 0
1 0.125 0
0.875 0.25 0
1 0.25 0
0.75 0.125 0
0.875 0.125 0
0.75 0.25 0
0.875 0.25 0
0.75 0.25 0
0.875 0.25 0
0.75 0.375 0
0.875 0.375 0
0.875 0.25 0
1 0.25 0
0.875 0.375 0
1 0.375 0
0.875 0.375 0
1 0.375 0
0.875 0.5 0
1 0.5 0
0.75 0.375 0
0.875 0.375 0
0.75 0.5 0
0.875 0.5 0
0.5 0.25 0
0.625 0.25 0
0.5 0.375 0
0.625 0.375 0
0.625 0.25 0
0.75 0.25 0
0.625 0.375 0
0.75 0.375 0
0.625 0.375 0
0.75 0.375 0
0.625 0.5 0
0.75 0.5 0
0.5 0.375 0
0.625 0.375 0
0.5 0.5 0
0.625 0.5 0
0.5 0.5 0
0.625 0.5 0
0.5 0.625 0
0.625 0.625 0
0.625 0.5 0
0.75 0.5 0
0.625 0.625 0
0.75 0.625 0
0.625 0.625 0
0.75 0.625 0
0.625 0.75 0
0.75 0.75 0
0.5 0.625 0
0.625 0.625 0
0.5 0.75 0
0.625 0.75 0
0.75 0.5 0
0.875 0.5 0
0.75 0.625 0
0.875 0.625 0
0.875 0.5 0
1 0.5 0
0.875 0.625 0
1 0.625 0
0.875 0.625 0
1 0.625 0
0.875 0.75 0
1 0.75 0
0.75 0.625 0
0.875 0.625 0
0.75 0.75 0
0.875 0.75 0
0.75 0.75 0
0.875 0.75 0
0.75 0.875 0
0.875 0.875 0
0.875 0.75 0
1 0.75 0
0.875 0.875 0
1 0.875 0
0.875 0.875 0
1 0.875 0
0.875 1 0
1 1 0
0.75 0.875 0
0.875 0.875 0
0.75 1 0
0.875 1 0
0.5 0.75 0
0.625 0.75 0
0.5 0.875 0
0.625 0.875 0
0.625 0.75 0
0.75 0.75 0
0.625 0.875 0
0.75 0.875 0
0.625 0.875 0
0.75 0.875 0
0.625 1 0
0.75 1 0
0.5 0.875 0
0.625 0.875 0
0.5 1 0
0.625 1 0
0 0.5 0
0.125 0.5 0
0 0.625 0
0.125 0.625 0
0.125 0.5 0
0.25 0.5 0
0.125 0.625 0
0.25 0.625 0
0.125 0.625 0
0.25 0.625 0
0.125 0.75 0
0.25 0.75 0
0 0.625 0
0.125 0.625 0
0 0.75 0
0.125 0.75 0
0.25 0.5 0
0.375 0.5 0
0.25 0.625 0
0.375 0.625 0
0.375 0.5 0
0.5 0.5 0
0.375 0.625 0
0.5 0.625 0
0.375 0.625 0
0.5 0.625 0
0.375 0.75 0
0.5 0.75 0
0.25 0.625 0
0.375 0.625 0
0.25 0.75 0
0.375 0.75 0
0.25 0.75 0
0.375 0.75 0
0.25 0.875 0
0.375 0.875 0
0.375 0.75 0
0.5 0.75 0
0.375 0.875 0
0.5 0.875 0
0.375 0.875 0
0.5 0.875 0
0.375 1 0
0.5 1 0
0.25 0.875 0
0.375 0.875 0
0.25 1 0
0.375 1 0
0 0.75 0
0.125 0.75 0
0 0.875 0
0.125 0.875 0
0.125 0.75 0
0.25 0.75 0
0.125 0.875 0
0.25 0.875 0
0.125 0.875 0
0.25 0.875 0
0.125 1 0
0.25 1 0
0 0.875 0
0.125 0.875 0
0 1 0
0.125 1 0
1 0 0
1.125 0 0
1 0.125 0
1.125 0.125 0
1.125 0 0
1.25 0 0
1.125 0.125 0
1.25 0.125 0
1.125 0.125 0
1.25 0.125 0
1.125 0.25 0
1.25 0.25 0
1 0.125 0
1.125 0.125 0
1 0.25 0
1.125 0.25 0
1.25 0 0
1.375 0 0
1.25 0.125 0
1.375 0.125 0
1.375 0 0
1.5 0 0
1.375 0.125 0
1.5 0.125 0
1.375 0.125 0
1.5 0.125 0
1.375 0.25 0
1.5 0.25 0
1.25 0.125 0
1.375 0.125 0
1.25 0.25 0
1.375 0.25 0
1.25 0.25 0
1.375 0.25 0
1.25 0.375 0
1.375 0.375 0
1.375 0.25 0
1.5 0.25 0
1.375 0.375 0
1.5 0.375 0
1.375 0.375 0
1.5 0.375 0
1.375 0.5 0
1.5 0.5 0
1.25 0.375 0
1.375 0.375 0
1.25 0.5 0
1.375 0.5 0
1 0.25 0
1.125 0.25 0
1 0.375 0
1.125 0.375 0
1.125 0.25 0
1.25 0.25 0
1.125 0.375 0
1.25 0.375 0
1.125 0.375 0
1.25 0.375 0
1.125 0.5 0
1.25 0.5 0
1 0.375 0
1.125 0.375 0
1 0.5 0
1.125 0.5 0
1.5 0 0
1.625 0 0
1.5 0.125 0
1.625 0.125 0
1.625 0 0
1.75 0 0
1.625 0.125 0
1.75 0.125 0
1.625 0.125 0
1.75 0.125 0
1.625 0.25 0
1.75 0.25 0
1.5 0.125 0
1.625 0.125 0
1.5 0.25 0
1.625 0.25 0
1.75 0 0
1.875 0 0
1.75 0.125 0
1.875 0.125 0
1.875 0 0
2 0 0
1.875 0.125 0
2 0.125 0
1.875 0.125 0
2 0.125 0
1.875 0.25 0
2 0.25 0
1.75 0.125 0
1.875 0.125 0
1.75 0.25 0
1.875 0.25 0
1.75 0.25 0
1.875 0.25 0
1.75 0.375 0
1.875 0.375 0
1.875 0.25 0
2 0.25 0
1.875 0.375 0
2 0.375 0
1.875 0.375 0
2 0.375 0
1.875 0.5 0
2 0.5 0
1.75 0.375 0
1.875 0.375 0
1.75 0.5 0
1.875 0.5 0
1.5 0.25 0
1.625 0.25 0
1.5 0.375 0
1.625 0.375 0
1.625 0.25 0
1.75 0.25 0
1.625 0.375 0
1.75 0.375 0
1.625 0.375 0
1.75 0.375 0
1.625 0.5 0
1.75 0.5 0
1.5 0.375 0
1.625 0.375 0
1.5 0.5 0
1.625 0.5 0
1.5 0.5 0
1.625 0.5 0
1.5 0.625 0
1.625 0.625 0
1.625 0.5 0
1.75 0.5 0
1.625 0.625 0
1.75 0.625 0
1.625 0.625 0
1.75 0.625 0
1.625 0.75 0
1.75 0.75 0
1.5 0.625 0
1.625 0.625 0
1.5 0.75 0
1.625 0.75 0
1.75 0.5 0
1.875 0.5 0
1.75 0.625 0
1.875 0.625 0
1.875 0.5 0
2 0.5 0
1.875 0.625 0
2 0.625 0
1.875 0.625 0
2 0.625 0
1.875 0.75 0
2 0.75 0
1.75 0.625 0
1.875 0.625 0
1.75 0.75 0
1.875 0.75 0
1.75 0.75 0
1.875 0.75 0
1.75 0.875 0
1.875 0.875 0
1.875 0.75 0
2 0.75 0
1.875 0.875 0
2 0.875 0
1.875 0.875 0
2 0.875 0
1.875 1 0
2 1 0
1.75 0.875 0
1.875 0.875 0
1.75 1 0
1.875 1 0
1.5 0.75 0
1.625 0.75 0
1.5 0.875 0
1.625 0.875 0
1.625 0.75 0
1.75 0.75 0
1.625 0.875 0
1.75 0.875 0
1.625 0.875 0
1.75 0.875 0
1.625 1 0
1.75 1 0
1.5 0.875 0
1.625 0.875 0
1.5 1 0
1.625 1 0
1 0.5 0
1.125 0.5 0
1 0.625 0
1.125 0.625 0
1.125 0.5 0
1.25 0.5 0
1.125 0.625 0
1.25 0.625 0
1.125 0.625 0
1.25 0.625 0
1.125 0.75 0
1.25 0.75 0
1 0.625 0
1.125 0.625 0
1 0.75 0
1.125 0.75 0
1.25 0.5 0
1.375 0.5 0
1.25 0.625 0
1.375 0.625 0
1.375 0.5 0
1.5 0.5 0
1.375 0.625 0
1.5 0.625 0
1.375 0.625 0
1.5 0.625 0
1.375 0.75 0
1.5 0.75 0
1.25 0.625 0
1.375 0.625 0
1.25 0.75 0
1.375 0.75 0
1.25 0.75 0
1.375 0.75 0
1.25 0.875 0
1.375 0.875 0
1.375 0.75 0
1.5 0.75 0
1.375 0.875 0
1.5 0.875 0
1.375 0.875 0
1.5 0.875 0
1.375 1 0
1.5 1 0
1.25 0.875 0
1.375 0.875 0
1.25 1 0
1.375 1 0
1 0.75 0
1.125 0.75 0
1 0.875 0
1.125 0.875 0
1.125 0.75 0
1.25 0.75 0
1.125 0.875 0
1.25 0.875 0
1.125 0.875 0
1.25 0.875 0
1.125 1 0
1.25 1 0
1 0.875 0
1.125 0.875 0
1 1 0
1.125 1 0
2 0 0
2.125 0 0
2 0.125 0
2.125 0.125 0
2.125 0 0
2.25 0 0
2.125 0.125 0
2.25 0.125 0
2.125 0.125 0
2.25 0.125 0
2.125 0.25 0
2.25 0.25 0
2 0.125 0
2.125 0.125 0
2 0.25 0
2.125 0.25 0
2.25 0 0
2.375 0 0
2.25 0.125 0
2.375 0.125 0
2.375 0 0
2.5 0 0
2.375 0.125 0
2.5 0.125 0
2.375 0.125 0
2.5 0.125 0
2.375 0.25 0
2.5 0.25 0
2.25 0.125 0
2.375 0.125 0
2.25 0.25 0
2.375 0.25 0
2.25 0.25 0
2.375 0.25 0
2.25 0.375 0
2.375 0.375 0
2.375 0.25 0
2.5 0.25 0
2.375 0.375 0
2.5 0.375 0
2.375 0.375 0
2.5 0.375 0
2.375 0.5 0
2.5 0.5 0
2.25 0.375 0
2.375 0.375 0
2.25 0.5 0
2.375 0.5 0
2 0.25 0
2.125 0.25 0
2 0.375 0
2.125 0.375 0
2.125 0.25 0
2.25 0.25 0
2.125 0.375 0
2.25 0.375 0
2.125 0.375 0
2.25 0.375 0
2.125 0.5 0
2.25 0.5 0
2 0.375 0
2.125 0.375 0
2 0.5 0
2.125 0.5 0
2.5 0 0
2.625 0 0
2.5 0.125 0
2.625 0.125 0
2.625 0 0
2.75 0 0
2.625 0.125 0
2.75 0.125 0
2.625 0.125 0
2.75 0.125 0
2.625 0.25 0
2.75 0.25 0
2.5 0.125 0
2.625 0.125 0
2.5 0.25 0
2.625 0.25 0
2.75 0 0
2.875 0 0
2.75 0.125 0
2.875 0.125 0
2.875 0 0
3 0 0
2.875 0.125 0
3 0.125 0
2.875 0.125 0
3 0.125 0
2.875 0.25 0
3 0.25 0
2.75 0.125 0
2.875 0.125 0
2.75 0.25 0
2.875 0.25 0
2.75 0.25 0
2.875 0.25 0
2.75 0.375 0
2.875 0.375 0
2.875 0.25 0
3 0.25 0
2.875 0.375 0
3 0.375 0
2.875 0.375 0
3 0.375 0
2.875 0.5 0
3 0.5 0
2.75 0.375 0
2.875 0.375 0
2.75 0.5 0
2.875 0.5 0
2.5 0.25 0
2.625 0.25 0
2.5 0.375 0
2.625 0.375 0
2.625 0.25 0
2.75 0.25 0
2.625 0.375 0
2.75 0.375 0
2.625 0.375 0
2.75 0.375 0
2.625 0.5 0
2.75 0.5 0
2.5 0.375 0
2.625 0.375 0
2.5 0.5 0
2.625 0.5 0
2.5 0.5 0
2.625 0.5 0
2.5 0.625 0
2.625 0.625 0
2.625 0.5 0
2.75 0.5 0
2.625 0.625 0
2.75 0.625 0
2.625 0.625 0
2.75 0.625 0
2.625 0.75 0
2.75 0.75 0
2.5 0.625 0
2.625 0.625 0
2.5 0.75 0
2.625 0.75 0
2.75 0.5 0
2.875 0.5 0
2.75 0.625 0
2.875 0.625 0
2.875 0.5 0
3 0.5 0
2.875 0.625 0
3 0.625 0
2.875 0.625 0
3 0.625 0
2.875 0.75 0
3 0.75 0
2.75 0.625 0
2.875 0.625 0
2.75 0.75 0
2.875 0.75 0
2.75 0.75 0
2.875 0.75 0
2.75 0.875 0
2.875 0.875 0
2.875 0.75 0
3 0.75 0
2.875 0.875 0
3 0.875 0
2.875 0.875 0
3 0.875 0
2.875 1 0
3 1 0
2.75 0.875 0
2.875 0.875 0
2.75 1 0
2.875 1 0
2.5 0.75 0
2.625 0.75 0
2.5 0.875 0
2.625 0.875 0
2.625 0.75 0
2.75 0.75 0
2.625 0.875 0
2.75 0.875 0
2.625 0.875 0
2.75 0.875 0
2.625 1 0
2.75 1 0
2.5 0.875 0
2.625 0.875 0
2.5 1 0
2.625 1 0
2 0.5 0
2.125 0.5 0
2 0.625 0
2.125 0.625 0
2.125 0.5 0
2.25 0.5 0
2.125 0.625 0
2.25 0.625 0
2.125 0.625 0
2.25 0.625 0
2.125 0.75 0
2.25 0.75 0
2 0.625 0
2.125 0.625 0
2 0.75 0
2.125 0.75 0
2.25 0.5 0
2.375 0.5 0
2.25 0.625 0
2.375 0.625 0
2.375 0.5 0
2.5 0.5 0
2.375 0.625 0
2.5 0.625 0
2.375 0.625 0
2.5 0.625 0
2.375 0.75 0
2.5 0.75 0
2.25 0.625 0
2.375 0.625 0
2.25 0.75 0
2.375 0.75 0
2.25 0.75 0
2.375 0.75 0
2.25 0.875 0
2.375 0.875 0
2.375 0.75 0
2.5 0.75 0
2.375 0.875 0
2.5 0.875 0
2.375 0.875 0
2.5 0.875 0
2.375 1 0
2.5 1 0
2.25 0.875 0
2.375 0.875 0
2.25 1 0
2.375 1 0
2 0.75 0
2.125 0.75 0
2 0.875 0
2.125 0.875 0
2.125 0.75 0
2.25 0.75 0
2.125 0.875 0
2.25 0.875 0
2.125 0.875 0
2.25 0.875 0
2.125 1 0
2.25 1 0
2 0.875 0
2.125 0.875 0
2 1 0
2.125 1 0
3 0 0
3.125 0 0
3 0.125 0
3.125 0.125 0
3.125 0 0
3.25 0 0
3.125 0.125 0
3.25 0.125 0
3.125 0.125 0
3.25 0.125 0
3.125 0.25 0
3.25 0.25 0
3 0.125 0
3.125 0.125 0
3 0.25 0
3.125 0.25 0
3.25 0 0
3.375 0 0
3.25 0.125 0
3.375 0.125 0
3.375 0 0
3.5 0 0
3.375 0.125 0
3.5 0.125 0
3.375 0.125 0
3.5 0.125 0
3.375 0.25 0
3.5 0.25 0
3.25 0.125 0
3.375 0.125 0
3.25 0.25 0
3.375 0.25 0
3.25 0.25 0
3.375 0.25 0
3.25 0.375 0
3.375 0.375 0
3.375 0.25 0
3.5 0.25 0
3.375 0.375 0
3.5 0.375 0
3.375 0.375 0
3.5 0.375 0
3.375 0.5 0
3.5 0.5 0
3.25 0.375 0
3.375 0.375 0
3.25 0.5 0
[...]
<CellData Scalars="attribute">
<DataArray type="Int32" Name="attribute" format="ascii">
1
1
1
1
1
1
1
1
1
1
1
1
1
1
1
1
1
1
1
1
1
1
1
1
1
1
1
1
1
1
1
1
1
1
1
1
1
1
1
1
1
1
1
1
1
1
1
1
1
1
1
1
1
1
1
1
1
1
1
1
1
1
1
1
1
1
1
1
1
1
1
1
1
1
1
1
1
1
1
1
1
1
1
1
1
1
1
1
1
1
1
1
1
1
1
1
1
1
1
1
1
1
1
1
1
1
1
1
1
1
1
1
1
1
1
1
1
1
1
1
1
1
1
1
1
1
1
1
1
1
1
1
1
1
1
1
1
1
1
1
1
1
1
1
1
1
1
1
1
1
1
1
1
1
1
1
1
1
1
1
1
1
1
1
1
1
1
1
1
1
1
1
1
1
1
1
1
1
1
1
1
1
1
1
1
1
1
1
1
1
1
1
1
1
1
1
1
1
1
1
1
1
1
1
1
1
1
1
1
1
1
1
1
1
1
1
1
1
1
1
1
1
1
1
1
1
1
1
1
1
1
1
1
1
1
1
1
1
1
1
1
1
1
1
1
1
1
1
1
1
1
1
1
1
1
1
2
2
2
2
2
2
2
2
2
2
2
2
2
2
2
2
2
2
2
2
2
2
2
2
2
2
2
2
2
2
2
2
2
2
2
2
2
2
2
2
2
2
2
2
2
2
2
2
2
2
2
2
2
2
2
2
2
2
2
2
2
2
2
2
2
2
2
2
2
2
2
2
2
2
2
2
2
2
2
2
2
2
2
2
2
2
2
2
2
2
2
2
2
2
2
2
2
2
2
2
2
2
2
2
2
2
2
2
2
2
2
2
2
2
2
2
2
2
2
2
2
2
2
2
2
2
2
2
2
2
2
2
2
2
2
2
2
2
2
2
2
2
2
2
2
2
2
2
2
2
2
2
2
2
2
2
2
2
2
2
2
2
2
2
2
2
2
2
2
2
2
2
2
2
2
2
2
2
2
2
2
2
2
2
2
2
2
2
2
2
2
2
2
2
2
2
2
2
2
2
2
2
2
2
2
2
2
2
2
2
2
2
2
2
2
2
2
2
2
2
2
2
2
2
2
2
2
2
2
2
2
2
2
2
2
2
2
2
2
2
2
2
2
2
2
2
2
2
2
2
2
2
2
2
2
2
</DataArray>
</CellData>
<PointData >
<DataArray type="Float64" Name="Pressure" NumberOfComponents="1" format="ascii" >
-6.71543e-05
-2.46279e-08
-0.00010989
-4.07675e-08
-2.46279e-08
3.90101e-13
-4.07675e-08
6.75528e-13
-4.07675e-08
6.75528e-13
-2.73689e-08
4.5873e-13
-0.00010989
-4.07675e-08
-7.326e-05
-2.73689e-08
3.90101e-13
-3.9832e-18
6.75528e-13
-7.11113e-18
-3.9832e-18
4.13126e-23
-7.11113e-18
7.64628e-23
-7.11113e-18
7.64628e-23
-4.95114e-18
5.46789e-23
6.75528e-13
-7.11113e-18
4.5873e-13
-4.95114e-18
4.5873e-13
-4.95114e-18
2.35077e-13
-2.52994e-18
-4.95114e-18
5.46789e-23
-2.52994e-18
2.79693e-23
-2.52994e-18
2.79693e-23
-8.36939e-20
8.86879e-25
2.35077e-13
-2.52994e-18
8.28013e-15
-8.36939e-20
-7.326e-05
-2.73689e-08
-3.66303e-05
-1.38978e-08
-2.73689e-08
4.5873e-13
-1.38978e-08
2.35077e-13
-1.38978e-08
2.35077e-13
-3.07769e-10
8.28013e-15
-3.66303e-05
-1.38978e-08
-3.78766e-10
-3.07769e-10
4.13126e-23
-2.21333e-28
7.64628e-23
-4.24532e-28
-2.21333e-28
2.03503e-33
-4.24532e-28
3.92528e-33
-4.24532e-28
3.92528e-33
-3.14455e-28
2.94924e-33
7.64628e-23
-4.24532e-28
5.46789e-23
-3.14455e-28
2.03503e-33
-4.53132e-39
3.92528e-33
-9.63233e-39
-4.53132e-39
6.22381e-44
-9.63233e-39
1.21852e-43
-9.63233e-39
1.21852e-43
-7.78507e-39
9.43558e-44
3.92528e-33
-9.63233e-39
2.94924e-33
-7.78507e-39
2.94924e-33
-7.78507e-39
1.53322e-33
-4.10457e-39
-7.78507e-39
9.43558e-44
-4.10457e-39
5.01069e-44
-4.10457e-39
5.01069e-44
-1.18255e-40
1.27568e-45
1.53322e-33
-4.10457e-39
4.39657e-35
-1.18255e-40
5.46789e-23
-3.14455e-28
2.79693e-23
-1.61837e-28
-3.14455e-28
2.94924e-33
-1.61837e-28
1.53322e-33
-1.61837e-28
1.53322e-33
-4.94029e-30
4.39657e-35
2.79693e-23
-1.61837e-28
8.86879e-25
-4.94029e-30
8.86879e-25
-4.94029e-30
-2.65731e-23
1.54136e-28
-4.94029e-30
4.39657e-35
1.54136e-28
-1.46615e-33
1.54136e-28
-1.46615e-33
3.13328e-28
-2.94144e-33
-2.65731e-23
1.54136e-28
-5.44219e-23
3.13328e-28
4.39657e-35
-1.18255e-40
-1.46615e-33
3.9254e-39
-1.18255e-40
1.27568e-45
3.9254e-39
-4.82156e-44
3.9254e-39
-4.82156e-44
7.76408e-39
-9.4203e-44
-1.46615e-33
3.9254e-39
-2.94144e-33
7.76408e-39
-2.94144e-33
7.76408e-39
-3.9879e-33
9.77899e-39
7.76408e-39
-9.4203e-44
9.77899e-39
-1.23557e-43
9.77899e-39
-1.23557e-43
4.63016e-39
-6.34427e-44
-3.9879e-33
9.77899e-39
-2.08083e-33
4.63016e-39
-5.44219e-23
3.13328e-28
-7.78252e-23
4.31756e-28
3.13328e-28
-2.94144e-33
4.31756e-28
-3.9879e-33
4.31756e-28
-3.9879e-33
2.26702e-28
-2.08083e-33
-7.78252e-23
4.31756e-28
-4.23983e-23
2.26702e-28
-3.78766e-10
-3.07769e-10
3.66296e-05
1.3401e-08
-3.07769e-10
8.28013e-15
1.3401e-08
-2.21743e-13
1.3401e-08
-2.21743e-13
2.72287e-08
-4.55067e-13
3.66296e-05
1.3401e-08
7.32598e-05
2.72287e-08
8.28013e-15
-8.36939e-20
-2.21743e-13
2.39652e-18
-8.36939e-20
8.86879e-25
2.39652e-18
-2.65731e-23
2.39652e-18
-2.65731e-23
4.92011e-18
-5.44219e-23
-2.21743e-13
2.39652e-18
-4.55067e-13
4.92011e-18
-4.55067e-13
4.92011e-18
-6.88016e-13
7.24336e-18
4.92011e-18
-5.44219e-23
7.24336e-18
-7.78252e-23
7.24336e-18
-7.78252e-23
4.09579e-18
-4.23983e-23
-6.88016e-13
7.24336e-18
-4.0289e-13
4.09579e-18
7.32598e-05
2.72287e-08
0.00010989
4.12262e-08
2.72287e-08
-4.55067e-13
4.12262e-08
-6.88016e-13
4.12262e-08
-6.88016e-13
2.51139e-08
-4.0289e-13
0.00010989
4.12262e-08
6.71549e-05
2.51139e-08
6.22381e-44
2.23116e-50
1.21852e-43
7.44176e-51
2.23116e-50
1.40579e-54
7.44176e-51
2.72801e-54
7.44176e-51
2.72801e-54
-1.53554e-50
2.12907e-54
1.21852e-43
7.44176e-51
9.43558e-44
-1.53554e-50
1.40579e-54
3.05782e-60
2.72801e-54
5.17307e-60
3.05782e-60
2.47815e-65
5.17307e-60
4.72259e-65
5.17307e-60
4.72259e-65
3.56921e-60
3.66583e-65
2.72801e-54
5.17307e-60
2.12907e-54
3.56921e-60
2.12907e-54
3.56921e-60
1.14745e-54
1.86023e-60
3.56921e-60
3.66583e-65
1.86023e-60
1.98768e-65
1.86023e-60
1.98768e-65
3.12547e-62
3.78122e-67
1.14745e-54
1.86023e-60
2.54221e-56
3.12547e-62
9.43558e-44
-1.53554e-50
5.01069e-44
-1.03344e-50
-1.53554e-50
2.12907e-54
-1.03344e-50
1.14745e-54
-1.03344e-50
1.14745e-54
-5.72339e-52
2.54221e-56
5.01069e-44
-1.03344e-50
1.27568e-45
-5.72339e-52
2.47815e-65
7.28044e-71
4.72259e-65
1.30494e-70
7.28044e-71
3.3116e-76
1.30494e-70
6.22011e-76
1.30494e-70
6.22011e-76
9.58643e-71
4.79504e-76
4.72259e-65
1.30494e-70
3.66583e-65
9.58643e-71
3.3116e-76
9.76309e-82
6.22011e-76
1.78257e-81
9.76309e-82
3.22052e-87
1.78257e-81
5.99921e-87
1.78257e-81
5.99921e-87
1.33901e-81
4.60702e-87
6.22011e-76
1.78257e-81
4.79504e-76
1.33901e-81
4.79504e-76
1.33901e-81
2.60354e-76
7.19884e-82
1.33901e-81
4.60702e-87
7.19884e-82
2.50197e-87
7.19884e-82
2.50197e-87
1.03531e-83
3.50507e-89
2.60354e-76
7.19884e-82
4.24171e-78
1.03531e-83
3.66583e-65
9.58643e-71
1.98768e-65
5.10427e-71
9.58643e-71
4.79504e-76
5.10427e-71
2.60354e-76
5.10427e-71
2.60354e-76
8.20067e-73
4.24171e-78
1.98768e-65
5.10427e-71
3.78122e-67
8.20067e-73
3.78122e-67
8.20067e-73
-1.93325e-65
-4.98824e-71
8.20067e-73
4.24171e-78
-4.98824e-71
-2.54291e-76
-4.98824e-71
-2.54291e-76
-9.58957e-71
-4.79337e-76
-1.93325e-65
-4.98824e-71
-3.66352e-65
-9.58957e-71
4.24171e-78
1.03531e-83
-2.54291e-76
-7.05242e-82
1.03531e-83
3.50507e-89
-7.05242e-82
-2.4521e-87
-7.05242e-82
-2.4521e-87
-1.33922e-81
-4.6062e-87
-2.54291e-76
-7.05242e-82
-4.79337e-76
-1.33922e-81
-4.79337e-76
-1.33922e-81
-6.27734e-76
-1.798e-81
-1.33922e-81
-4.6062e-87
-1.798e-81
-6.04739e-87
-1.798e-81
-6.04739e-87
-9.87309e-82
-3.25469e-87
-6.27734e-76
-1.798e-81
-3.35214e-76
-9.87309e-82
-3.66352e-65
-9.58957e-71
-4.77247e-65
-1.31788e-70
-9.58957e-71
-4.79337e-76
-1.31788e-70
-6.27734e-76
-1.31788e-70
-6.27734e-76
-7.37382e-71
-3.35214e-76
-4.77247e-65
-1.31788e-70
-2.51335e-65
-7.37382e-71
1.27568e-45
-5.72339e-52
-4.82156e-44
9.43955e-51
-5.72339e-52
2.54221e-56
9.43955e-51
-1.11044e-54
9.43955e-51
-1.11044e-54
1.50729e-50
-2.12686e-54
-4.82156e-44
9.43955e-51
-9.4203e-44
1.50729e-50
2.54221e-56
3.12547e-62
-1.11044e-54
-1.81622e-60
3.12547e-62
3.78122e-67
-1.81622e-60
-1.93325e-65
-1.81622e-60
-1.93325e-65
-3.57254e-60
-3.66352e-65
-1.11044e-54
-1.81622e-60
-2.12686e-54
-3.57254e-60
-2.12686e-54
-3.57254e-60
-2.76119e-54
-5.23145e-60
-3.57254e-60
-3.66352e-65
-5.23145e-60
-4.77247e-65
-5.23145e-60
-4.77247e-65
-3.10165e-60
-2.51335e-65
-2.76119e-54
-5.23145e-60
-1.42909e-54
-3.10165e-60
-9.4203e-44
1.50729e-50
-1.23557e-43
-7.47658e-51
1.50729e-50
-2.12686e-54
-7.47658e-51
-2.76119e-54
-7.47658e-51
-2.76119e-54
-2.25289e-50
-1.42909e-54
-1.23557e-43
-7.47658e-51
-6.34427e-44
-2.25289e-50
3.22052e-87
8.51297e-93
5.99921e-87
1.56582e-92
8.51297e-93
2.22014e-98
1.56582e-92
4.11876e-98
1.56582e-92
4.11876e-98
1.1887e-92
3.15913e-98
5.99921e-87
1.56582e-92
4.60702e-87
1.1887e-92
2.22014e-98
5.01768e-104
4.11876e-98
9.25707e-104
5.01768e-104
1.0617e-109
9.25707e-104
1.96575e-109
9.25707e-104
1.96575e-109
7.06674e-104
1.50796e-109
4.11876e-98
9.25707e-104
3.15913e-98
7.06674e-104
3.15913e-98
7.06674e-104
1.71603e-98
3.8303e-104
7.06674e-104
1.50796e-109
3.8303e-104
8.1937e-110
3.8303e-104
8.1937e-110
4.25954e-106
8.60924e-112
1.71603e-98
3.8303e-104
2.07779e-100
4.25954e-106
4.60702e-87
1.1887e-92
2.50197e-87
6.42436e-93
1.1887e-92
3.15913e-98
6.42436e-93
1.71603e-98
6.42436e-93
1.71603e-98
8.1473e-95
2.07779e-100
2.50197e-87
6.42436e-93
3.50507e-89
8.1473e-95
1.0617e-109
1.99299e-115
1.96575e-109
3.68103e-115
1.99299e-115
3.39703e-121
3.68103e-115
6.28324e-121
3.68103e-115
6.28324e-121
2.81883e-115
4.82296e-121
1.96575e-109
3.68103e-115
1.50796e-109
2.81883e-115
3.39703e-121
5.09523e-127
6.28324e-121
9.41381e-127
5.09523e-127
6.65517e-133
9.41381e-127
1.23021e-132
9.41381e-127
1.23021e-132
7.22225e-127
9.44963e-133
6.28324e-121
9.41381e-127
4.82296e-121
7.22225e-127
4.82296e-121
7.22225e-127
2.6214e-121
3.92411e-127
7.22225e-127
9.44963e-133
3.92411e-127
5.1372e-133
3.92411e-127
5.1372e-133
3.33672e-129
4.09407e-135
2.6214e-121
3.92411e-127
2.39665e-123
3.33672e-129
1.50796e-109
2.81883e-115
8.1937e-110
1.53028e-115
2.81883e-115
4.82296e-121
1.53028e-115
2.6214e-121
1.53028e-115
2.6214e-121
1.48876e-117
2.39665e-123
8.1937e-110
1.53028e-115
8.60924e-112
1.48876e-117
8.60924e-112
1.48876e-117
-8.07172e-110
-1.50923e-115
1.48876e-117
2.39665e-123
-1.50923e-115
-2.58746e-121
-1.50923e-115
-2.58746e-121
-2.81887e-115
-4.82282e-121
-8.07172e-110
-1.50923e-115
-1.50789e-109
-2.81887e-115
2.39665e-123
3.33672e-129
-2.58746e-121
-3.87692e-127
3.33672e-129
4.09407e-135
-3.87692e-127
-5.07925e-133
-3.87692e-127
-5.07925e-133
-7.22223e-127
-9.44943e-133
-2.58746e-121
-3.87692e-127
-4.82282e-121
-7.22223e-127
-4.82282e-121
-7.22223e-127
-6.31681e-121
-9.46085e-127
-7.22223e-127
-9.44943e-133
-9.46085e-127
-1.23595e-132
-9.46085e-127
-1.23595e-132
-5.12853e-127
-6.69579e-133
-6.31681e-121
-9.46085e-127
-3.42081e-121
-5.12853e-127
-1.50789e-109
-2.81887e-115
-1.97778e-109
-3.70214e-115
-2.81887e-115
-4.82282e-121
-3.70214e-115
-6.31681e-121
-3.70214e-115
-6.31681e-121
-2.00793e-115
-3.42081e-121
-1.97778e-109
-3.70214e-115
-1.07023e-109
-2.00793e-115
3.50507e-89
8.1473e-95
-2.4521e-87
-6.30918e-93
8.1473e-95
2.07779e-100
-6.30918e-93
-1.68655e-98
-6.30918e-93
-1.68655e-98
-1.1888e-92
-3.15886e-98
-2.4521e-87
-6.30918e-93
-4.6062e-87
-1.1888e-92
2.07779e-100
4.25954e-106
-1.68655e-98
-3.77008e-104
4.25954e-106
8.60924e-112
-3.77008e-104
-8.07172e-110
-3.77008e-104
-8.07172e-110
-7.067e-104
-1.50789e-109
-1.68655e-98
-3.77008e-104
-3.15886e-98
-7.067e-104
-3.15886e-98
-7.067e-104
-4.14764e-98
-9.31796e-104
-7.067e-104
-1.50789e-109
-9.31796e-104
-1.97778e-109
-9.31796e-104
-1.97778e-109
-5.06081e-104
-1.07023e-109
-4.14764e-98
-9.31796e-104
-2.24062e-98
-5.06081e-104
-4.6062e-87
-1.1888e-92
-6.04739e-87
-1.57764e-92
-1.1888e-92
-3.15886e-98
-1.57764e-92
-4.14764e-98
-1.57764e-92
-4.14764e-98
-8.59681e-93
-2.24062e-98
-6.04739e-87
-1.57764e-92
-3.25469e-87
-8.59681e-93
6.65517e-133
7.18072e-139
1.23021e-132
1.32663e-138
7.18072e-139
5.68711e-145
1.32663e-138
1.05081e-144
1.32663e-138
1.05081e-144
1.01899e-138
8.07668e-145
1.23021e-132
1.32663e-138
9.44963e-133
1.01899e-138
5.68711e-145
1.56062e-151
1.05081e-144
2.88266e-151
1.56062e-151
-4.6262e-157
2.88266e-151
-8.54489e-157
2.88266e-151
-8.54489e-157
2.21591e-151
-6.5711e-157
1.05081e-144
2.88266e-151
8.07668e-145
2.21591e-151
8.07668e-145
2.21591e-151
4.39132e-145
1.20473e-151
2.21591e-151
-6.5711e-157
1.20473e-151
-3.57286e-157
1.20473e-151
-3.57286e-157
7.82287e-154
-2.17042e-159
4.39132e-145
1.20473e-151
3.05418e-147
7.82287e-154
9.44963e-133
1.01899e-138
5.1372e-133
5.53889e-139
1.01899e-138
8.07668e-145
5.53889e-139
4.39132e-145
5.53889e-139
4.39132e-145
4.11551e-141
3.05418e-147
5.1372e-133
5.53889e-139
4.09407e-135
4.11551e-141
-4.6262e-157
-1.07376e-162
-8.54489e-157
-1.98288e-162
-1.07376e-162
-1.36031e-168
-1.98288e-162
-2.5118e-168
-1.98288e-162
-2.5118e-168
-1.52509e-162
-1.93239e-168
-8.54489e-157
-1.98288e-162
-6.5711e-157
-1.52509e-162
-1.36031e-168
-1.06662e-174
-2.5118e-168
-1.96918e-174
-1.06662e-174
-2.05491e-181
-1.96918e-174
-3.79331e-181
-1.96918e-174
-3.79331e-181
-1.51516e-174
-2.91922e-181
-2.5118e-168
-1.96918e-174
-1.93239e-168
-1.51516e-174
-1.93239e-168
-1.51516e-174
-1.05066e-168
-8.2377e-175
-1.51516e-174
-2.91922e-181
-8.2377e-175
-1.58711e-181
-8.2377e-175
-1.58711e-181
-4.08884e-177
-7.36916e-184
-1.05066e-168
-8.2377e-175
-5.57837e-171
-4.08884e-177
-6.5711e-157
-1.52509e-162
-3.57286e-157
-8.29192e-163
-1.52509e-162
-1.93239e-168
-8.29192e-163
-1.05066e-168
-8.29192e-163
-1.05066e-168
-4.7066e-165
-5.57837e-171
-3.57286e-157
-8.29192e-163
-2.17042e-159
-4.7066e-165
-2.17042e-159
-4.7066e-165
3.54212e-157
8.22526e-163
-4.7066e-165
-5.57837e-171
8.22526e-163
1.04275e-168
8.22526e-163
1.04275e-168
1.52505e-162
1.93233e-168
3.54212e-157
8.22526e-163
6.57093e-157
1.52505e-162
-5.57837e-171
-4.08884e-177
1.04275e-168
8.17976e-175
-4.08884e-177
-7.36916e-184
8.17976e-175
1.57666e-181
8.17976e-175
1.57666e-181
1.51511e-174
2.91913e-181
1.04275e-168
8.17976e-175
1.93233e-168
1.51511e-174
1.93233e-168
1.51511e-174
2.51956e-168
1.97486e-174
1.51511e-174
2.91913e-181
1.97486e-174
3.80353e-181
1.97486e-174
3.80353e-181
1.07064e-174
2.06215e-181
2.51956e-168
1.97486e-174
1.36581e-168
1.07064e-174
6.57093e-157
1.52505e-162
8.57518e-157
1.98945e-162
1.52505e-162
1.93233e-168
1.98945e-162
2.51956e-168
1.98945e-162
2.51956e-168
1.07841e-162
1.36581e-168
8.57518e-157
1.98945e-162
4.64765e-157
1.07841e-162
4.09407e-135
4.11551e-141
-5.07925e-133
-5.48066e-139
4.11551e-141
3.05418e-147
-5.48066e-139
-4.34809e-145
-5.48066e-139
-4.34809e-145
-1.01897e-138
-8.0765e-145
-5.07925e-133
-5.48066e-139
-9.44943e-133
-1.01897e-138
3.05418e-147
7.82287e-154
-4.34809e-145
-1.19365e-151
7.82287e-154
-2.17042e-159
-1.19365e-151
3.54212e-157
-1.19365e-151
3.54212e-157
-2.21587e-151
6.57093e-157
-4.34809e-145
-1.19365e-151
-8.0765e-145
-2.21587e-151
-8.0765e-145
-2.21587e-151
-1.05509e-144
-2.89361e-151
-2.21587e-151
6.57093e-157
-2.89361e-151
8.57518e-157
-2.89361e-151
8.57518e-157
-1.56837e-151
4.64765e-157
-1.05509e-144
-2.89361e-151
-5.71736e-145
-1.56837e-151
-9.44943e-133
-1.01897e-138
-1.23595e-132
-1.33241e-138
-1.01897e-138
-8.0765e-145
-1.33241e-138
-1.05509e-144
-1.33241e-138
-1.05509e-144
-7.22164e-139
-5.71736e-145
-1.23595e-132
-1.33241e-138
-6.69579e-133
-7.22164e-139
-2.05491e-181
8.50104e-187
-3.79331e-181
1.56906e-186
8.50104e-187
1.51507e-192
1.56906e-186
2.79608e-192
1.56906e-186
2.79608e-192
1.20765e-186
2.15232e-192
-3.79331e-181
1.56906e-186
-2.91922e-181
1.20765e-186
1.51507e-192
1.35226e-198
2.79608e-192
2.4953e-198
1.35226e-198
4.14074e-205
2.4953e-198
7.64002e-205
2.4953e-198
7.64002e-205
1.92099e-198
5.88217e-205
2.79608e-192
2.4953e-198
2.15232e-192
1.92099e-198
2.15232e-192
1.92099e-198
1.17006e-192
1.04425e-198
1.92099e-198
5.88217e-205
1.04425e-198
3.1974e-205
1.04425e-198
3.1974e-205
3.96844e-201
1.13701e-207
1.17006e-192
1.04425e-198
4.75313e-195
3.96844e-201
-2.91922e-181
1.20765e-186
-1.58711e-181
6.56537e-187
1.20765e-186
2.15232e-192
6.56537e-187
1.17006e-192
6.56537e-187
1.17006e-192
2.85079e-189
4.75313e-195
-1.58711e-181
6.56537e-187
-7.36916e-184
2.85079e-189
4.14074e-205
-7.22761e-211
7.64002e-205
-1.33341e-210
-7.22761e-211
-1.32353e-216
-1.33341e-210
-2.44152e-216
-1.33341e-210
-2.44152e-216
-1.0267e-210
-1.88006e-216
7.64002e-205
-1.33341e-210
5.88217e-205
-1.0267e-210
-1.32353e-216
-1.02572e-222
-2.44152e-216
-1.89197e-222
-1.02572e-222
-1.12539e-229
-1.89197e-222
-2.07563e-229
-1.89197e-222
-2.07563e-229
-1.45698e-222
-1.59851e-229
-2.44152e-216
-1.89197e-222
-1.88006e-216
-1.45698e-222
-1.88006e-216
-1.45698e-222
-1.02185e-216
-7.91859e-223
-1.45698e-222
-1.59851e-229
-7.91859e-223
-8.68736e-230
-7.91859e-223
-8.68736e-230
-2.30846e-225
-2.37107e-232
-1.02185e-216
-7.91859e-223
-3.1825e-219
-2.30846e-225
5.88217e-205
-1.0267e-210
3.1974e-205
-5.5806e-211
-1.0267e-210
-1.88006e-216
-5.5806e-211
-1.02185e-216
-5.5806e-211
-1.02185e-216
-1.85698e-213
-3.1825e-219
3.1974e-205
-5.5806e-211
1.13701e-207
-1.85698e-213
1.13701e-207
-1.85698e-213
-3.18126e-205
5.55422e-211
-1.85698e-213
-3.1825e-219
5.55422e-211
1.01733e-216
5.55422e-211
1.01733e-216
1.02666e-210
1.87998e-216
-3.18126e-205
5.55422e-211
-5.88194e-205
1.02666e-210
-3.1825e-219
-2.30846e-225
1.01733e-216
7.88576e-223
-2.30846e-225
-2.37107e-232
7.88576e-223
8.65362e-230
7.88576e-223
8.65362e-230
1.45692e-222
1.59844e-229
1.01733e-216
7.88576e-223
1.87998e-216
1.45692e-222
1.87998e-216
1.45692e-222
2.44588e-216
1.89512e-222
1.45692e-222
1.59844e-229
1.89512e-222
2.07885e-229
1.89512e-222
2.07885e-229
1.02795e-222
1.12767e-229
2.44588e-216
1.89512e-222
1.32661e-216
1.02795e-222
-5.88194e-205
1.02666e-210
-7.65566e-205
1.33596e-210
1.02666e-210
1.87998e-216
1.33596e-210
2.44588e-216
1.33596e-210
2.44588e-216
7.24564e-211
1.32661e-216
-7.65566e-205
1.33596e-210
-4.15181e-205
7.24564e-211
-7.36916e-184
2.85079e-189
1.57666e-181
-6.52494e-187
2.85079e-189
4.75313e-195
-6.52494e-187
-1.16332e-192
-6.52494e-187
-1.16332e-192
-1.20761e-186
-2.15224e-192
1.57666e-181
-6.52494e-187
2.91913e-181
-1.20761e-186
4.75313e-195
3.96844e-201
-1.16332e-192
-1.03862e-198
3.96844e-201
1.13701e-207
-1.03862e-198
-3.18126e-205
-1.03862e-198
-3.18126e-205
-1.92091e-198
-5.88194e-205
-1.16332e-192
-1.03862e-198
-2.15224e-192
-1.92091e-198
-2.15224e-192
-1.92091e-198
-2.80264e-192
-2.50077e-198
-1.92091e-198
-5.88194e-205
-2.50077e-198
-7.65566e-205
-2.50077e-198
-7.65566e-205
-1.35613e-198
-4.15181e-205
-2.80264e-192
-2.50077e-198
-1.51972e-192
-1.35613e-198
2.91913e-181
-1.20761e-186
3.80353e-181
-1.573e-186
-1.20761e-186
-2.15224e-192
-1.573e-186
-2.80264e-192
-1.573e-186
-2.80264e-192
-8.52899e-187
-1.51972e-192
3.80353e-181
-1.573e-186
2.06215e-181
-8.52899e-187
-1.12539e-229
7.1579e-235
-2.07563e-229
1.32007e-234
7.1579e-235
8.97389e-241
1.32007e-234
1.65484e-240
1.32007e-234
1.65484e-240
1.01668e-234
1.27458e-240
-2.07563e-229
1.32007e-234
-1.59851e-229
1.01668e-234
8.97389e-241
4.23878e-247
1.65484e-240
7.81597e-247
4.23878e-247
-2.25603e-253
7.81597e-247
-4.15964e-253
7.81597e-247
-4.15964e-253
6.02024e-247
-3.20409e-253
1.65484e-240
7.81597e-247
1.27458e-240
6.02024e-247
1.27458e-240
6.02024e-247
6.92627e-241
3.27134e-247
6.02024e-247
-3.20409e-253
3.27134e-247
-1.741e-253
3.27134e-247
-1.741e-253
7.33264e-250
-3.65573e-256
6.92627e-241
3.27134e-247
1.65754e-243
7.33264e-250
-1.59851e-229
1.01668e-234
-8.68736e-230
5.52507e-235
1.01668e-234
1.27458e-240
5.52507e-235
6.92627e-241
5.52507e-235
6.92627e-241
1.41189e-237
1.65754e-243
-8.68736e-230
5.52507e-235
-2.37107e-232
1.41189e-237
-2.25603e-253
-5.36009e-259
-4.15964e-253
-9.88222e-259
-5.36009e-259
-3.67577e-265
-9.88222e-259
-6.77648e-265
-9.88222e-259
-6.77648e-265
-7.61236e-259
-5.22015e-265
-4.15964e-253
-9.88222e-259
-3.20409e-253
-7.61236e-259
-3.67577e-265
1.5771e-272
-6.77648e-265
2.9073e-272
1.5771e-272
2.5659e-277
2.9073e-272
4.72983e-277
2.9073e-272
4.72983e-277
2.23968e-272
3.64376e-277
-6.77648e-265
2.9073e-272
-5.22015e-265
2.23968e-272
-5.22015e-265
2.23968e-272
-2.83623e-265
1.21683e-272
2.23968e-272
3.64376e-277
1.21683e-272
1.9796e-277
1.21683e-272
1.9796e-277
2.10283e-275
3.2078e-280
-2.83623e-265
1.21683e-272
-5.22959e-268
2.10283e-275
-3.20409e-253
-7.61236e-259
-1.741e-253
-4.13614e-259
-7.61236e-259
-5.22015e-265
-4.13614e-259
-2.83623e-265
-4.13614e-259
-2.83623e-265
-8.13773e-262
-5.22959e-268
-1.741e-253
-4.13614e-259
-3.65573e-256
-8.13773e-262
-3.65573e-256
-8.13773e-262
1.73578e-253
4.12452e-259
-8.13773e-262
-5.22959e-268
4.12452e-259
2.82876e-265
4.12452e-259
2.82876e-265
7.61197e-259
5.21988e-265
1.73578e-253
4.12452e-259
3.20393e-253
7.61197e-259
-5.22959e-268
2.10283e-275
2.82876e-265
-1.21382e-272
2.10283e-275
3.2078e-280
-1.21382e-272
-1.97501e-277
-1.21382e-272
-1.97501e-277
-2.23956e-272
-3.64357e-277
2.82876e-265
-1.21382e-272
5.21988e-265
-2.23956e-272
5.21988e-265
-2.23956e-272
6.78342e-265
-2.91008e-272
-2.23956e-272
-3.64357e-277
-2.91008e-272