<VTKFile type="UnstructuredGrid" version="0.1" byte_order="LittleEndian">
<UnstructuredGrid>
<Piece NumberOfPoints="2048" NumberOfCells="512">
<Points>
<DataArray type="Float64" NumberOfComponents="3" format="ascii">
0 0 0
0.125 0 0
0 0.125 0
0.125 0.125 0
0.125 0 0
0.25 0 0
0.125 0.125 0
0.25 0.125 0
0.125 0.125 0
0.25 0.125 0
0.125 0.25 0
0.25 0.25 0
0 0.125 0
0.125 0.125 0
0 0.25 0
0.125 0.25 0
0.25 0 0
0.375 0 0
0.25 0.125 0
0.375 0.125 0
0.375 0 0
0.5 0 0
0.375 0.125 0
0.5 0.125 0
0.375 0.125 0
0.5 0.125 0
0.375 0.25 0
0.5 0.25 0
0.25 0.125 0
0.375 0.125 0
0.25 0.25 0
0.375 0.25 0
0.25 0.25 0
0.375 0.25 0
0.25 0.375 0
0.375 0.375 0
0.375 0.25 0
0.5 0.25 0
0.375 0.375 0
0.5 0.375 0
0.375 0.375 0
0.5 0.375 0
0.375 0.5 0
0.5 0.5 0
0.25 0.375 0
0.375 0.375 0
0.25 0.5 0
0.375 0.5 0
0 0.25 0
0.125 0.25 0
0 0.375 0
0.125 0.375 0
0.125 0.25 0
0.25 0.25 0
0.125 0.375 0
0.25 0.375 0
0.125 0.375 0
0.25 0.375 0
0.125 0.5 0
0.25 0.5 0
0 0.375 0
0.125 0.375 0
0 0.5 0
0.125 0.5 0
0.5 0 0
0.625 0 0
0.5 0.125 0
0.625 0.125 0
0.625 0 0
0.75 0 0
0.625 0.125 0
0.75 0.125 0
0.625 0.125 0
0.75 0.125 0
0.625 0.25 0
0.75 0.25 0
0.5 0.125 0
0.625 0.125 0
0.5 0.25 0
0.625 0.25 0
0.75 0 0
0.875 0 0
0.75 0.125 0
0.875 0.125 0
0.875 0 0
1 0 0
0.875 0.125 0
1 0.125 0
0.875 0.125 0
1 0.125 0
0.875 0.25 0
1 0.25 0
0.75 0.125 0
0.875 0.125 0
0.75 0.25 0
0.875 0.25 0
0.75 0.25 0
0.875 0.25 0
0.75 0.375 0
0.875 0.375 0
0.875 0.25 0
1 0.25 0
0.875 0.375 0
1 0.375 0
0.875 0.375 0
1 0.375 0
0.875 0.5 0
1 0.5 0
0.75 0.375 0
0.875 0.375 0
0.75 0.5 0
0.875 0.5 0
0.5 0.25 0
0.625 0.25 0
0.5 0.375 0
0.625 0.375 0
0.625 0.25 0
0.75 0.25 0
0.625 0.375 0
0.75 0.375 0
0.625 0.375 0
0.75 0.375 0
0.625 0.5 0
0.75 0.5 0
0.5 0.375 0
0.625 0.375 0
0.5 0.5 0
0.625 0.5 0
0.5 0.5 0
0.625 0.5 0
0.5 0.625 0
0.625 0.625 0
0.625 0.5 0
0.75 0.5 0
0.625 0.625 0
0.75 0.625 0
0.625 0.625 0
0.75 0.625 0
0.625 0.75 0
0.75 0.75 0
0.5 0.625 0
0.625 0.625 0
0.5 0.75 0
0.625 0.75 0
0.75 0.5 0
0.875 0.5 0
0.75 0.625 0
0.875 0.625 0
0.875 0.5 0
1 0.5 0
0.875 0.625 0
1 0.625 0
0.875 0.625 0
1 0.625 0
0.875 0.75 0
1 0.75 0
0.75 0.625 0
0.875 0.625 0
0.75 0.75 0
0.875 0.75 0
0.75 0.75 0
0.875 0.75 0
0.75 0.875 0
0.875 0.875 0
0.875 0.75 0
1 0.75 0
0.875 0.875 0
1 0.875 0
0.875 0.875 0
1 0.875 0
0.875 1 0
1 1 0
0.75 0.875 0
0.875 0.875 0
0.75 1 0
0.875 1 0
0.5 0.75 0
0.625 0.75 0
0.5 0.875 0
0.625 0.875 0
0.625 0.75 0
0.75 0.75 0
0.625 0.875 0
0.75 0.875 0
0.625 0.875 0
0.75 0.875 0
0.625 1 0
0.75 1 0
0.5 0.875 0
0.625 0.875 0
0.5 1 0
0.625 1 0
0 0.5 0
0.125 0.5 0
0 0.625 0
0.125 0.625 0
0.125 0.5 0
0.25 0.5 0
0.125 0.625 0
0.25 0.625 0
0.125 0.625 0
0.25 0.625 0
0.125 0.75 0
0.25 0.75 0
0 0.625 0
0.125 0.625 0
0 0.75 0
0.125 0.75 0
0.25 0.5 0
0.375 0.5 0
0.25 0.625 0
0.375 0.625 0
0.375 0.5 0
0.5 0.5 0
0.375 0.625 0
0.5 0.625 0
0.375 0.625 0
0.5 0.625 0
0.375 0.75 0
0.5 0.75 0
0.25 0.625 0
0.375 0.625 0
0.25 0.75 0
0.375 0.75 0
0.25 0.75 0
0.375 0.75 0
0.25 0.875 0
0.375 0.875 0
0.375 0.75 0
0.5 0.75 0
0.375 0.875 0
0.5 0.875 0
0.375 0.875 0
0.5 0.875 0
0.375 1 0
0.5 1 0
0.25 0.875 0
0.375 0.875 0
0.25 1 0
0.375 1 0
0 0.75 0
0.125 0.75 0
0 0.875 0
0.125 0.875 0
0.125 0.75 0
0.25 0.75 0
0.125 0.875 0
0.25 0.875 0
0.125 0.875 0
0.25 0.875 0
0.125 1 0
0.25 1 0
0 0.875 0
0.125 0.875 0
0 1 0
0.125 1 0
1 0 0
1.125 0 0
1 0.125 0
1.125 0.125 0
1.125 0 0
1.25 0 0
1.125 0.125 0
1.25 0.125 0
1.125 0.125 0
1.25 0.125 0
1.125 0.25 0
1.25 0.25 0
1 0.125 0
1.125 0.125 0
1 0.25 0
1.125 0.25 0
1.25 0 0
1.375 0 0
1.25 0.125 0
1.375 0.125 0
1.375 0 0
1.5 0 0
1.375 0.125 0
1.5 0.125 0
1.375 0.125 0
1.5 0.125 0
1.375 0.25 0
1.5 0.25 0
1.25 0.125 0
1.375 0.125 0
1.25 0.25 0
1.375 0.25 0
1.25 0.25 0
1.375 0.25 0
1.25 0.375 0
1.375 0.375 0
1.375 0.25 0
1.5 0.25 0
1.375 0.375 0
1.5 0.375 0
1.375 0.375 0
1.5 0.375 0
1.375 0.5 0
1.5 0.5 0
1.25 0.375 0
1.375 0.375 0
1.25 0.5 0
1.375 0.5 0
1 0.25 0
1.125 0.25 0
1 0.375 0
1.125 0.375 0
1.125 0.25 0
1.25 0.25 0
1.125 0.375 0
1.25 0.375 0
1.125 0.375 0
1.25 0.375 0
1.125 0.5 0
1.25 0.5 0
1 0.375 0
1.125 0.375 0
1 0.5 0
1.125 0.5 0
1.5 0 0
1.625 0 0
1.5 0.125 0
1.625 0.125 0
1.625 0 0
1.75 0 0
1.625 0.125 0
1.75 0.125 0
1.625 0.125 0
1.75 0.125 0
1.625 0.25 0
1.75 0.25 0
1.5 0.125 0
1.625 0.125 0
1.5 0.25 0
1.625 0.25 0
1.75 0 0
1.875 0 0
1.75 0.125 0
1.875 0.125 0
1.875 0 0
2 0 0
1.875 0.125 0
2 0.125 0
1.875 0.125 0
2 0.125 0
1.875 0.25 0
2 0.25 0
1.75 0.125 0
1.875 0.125 0
1.75 0.25 0
1.875 0.25 0
1.75 0.25 0
1.875 0.25 0
1.75 0.375 0
1.875 0.375 0
1.875 0.25 0
2 0.25 0
1.875 0.375 0
2 0.375 0
1.875 0.375 0
2 0.375 0
1.875 0.5 0
2 0.5 0
1.75 0.375 0
1.875 0.375 0
1.75 0.5 0
1.875 0.5 0
1.5 0.25 0
1.625 0.25 0
1.5 0.375 0
1.625 0.375 0
1.625 0.25 0
1.75 0.25 0
1.625 0.375 0
1.75 0.375 0
1.625 0.375 0
1.75 0.375 0
1.625 0.5 0
1.75 0.5 0
1.5 0.375 0
1.625 0.375 0
1.5 0.5 0
1.625 0.5 0
1.5 0.5 0
1.625 0.5 0
1.5 0.625 0
1.625 0.625 0
1.625 0.5 0
1.75 0.5 0
1.625 0.625 0
1.75 0.625 0
1.625 0.625 0
1.75 0.625 0
1.625 0.75 0
1.75 0.75 0
1.5 0.625 0
1.625 0.625 0
1.5 0.75 0
1.625 0.75 0
1.75 0.5 0
1.875 0.5 0
1.75 0.625 0
1.875 0.625 0
1.875 0.5 0
2 0.5 0
1.875 0.625 0
2 0.625 0
1.875 0.625 0
2 0.625 0
1.875 0.75 0
2 0.75 0
1.75 0.625 0
1.875 0.625 0
1.75 0.75 0
1.875 0.75 0
1.75 0.75 0
1.875 0.75 0
1.75 0.875 0
1.875 0.875 0
1.875 0.75 0
2 0.75 0
1.875 0.875 0
2 0.875 0
1.875 0.875 0
2 0.875 0
1.875 1 0
2 1 0
1.75 0.875 0
1.875 0.875 0
1.75 1 0
1.875 1 0
1.5 0.75 0
1.625 0.75 0
1.5 0.875 0
1.625 0.875 0
1.625 0.75 0
1.75 0.75 0
1.625 0.875 0
1.75 0.875 0
1.625 0.875 0
1.75 0.875 0
1.625 1 0
1.75 1 0
1.5 0.875 0
1.625 0.875 0
1.5 1 0
1.625 1 0
1 0.5 0
1.125 0.5 0
1 0.625 0
1.125 0.625 0
1.125 0.5 0
1.25 0.5 0
1.125 0.625 0
1.25 0.625 0
1.125 0.625 0
1.25 0.625 0
1.125 0.75 0
1.25 0.75 0
1 0.625 0
1.125 0.625 0
1 0.75 0
1.125 0.75 0
1.25 0.5 0
1.375 0.5 0
1.25 0.625 0
1.375 0.625 0
1.375 0.5 0
1.5 0.5 0
1.375 0.625 0
1.5 0.625 0
1.375 0.625 0
1.5 0.625 0
1.375 0.75 0
1.5 0.75 0
1.25 0.625 0
1.375 0.625 0
1.25 0.75 0
1.375 0.75 0
1.25 0.75 0
1.375 0.75 0
1.25 0.875 0
1.375 0.875 0
1.375 0.75 0
1.5 0.75 0
1.375 0.875 0
1.5 0.875 0
1.375 0.875 0
1.5 0.875 0
1.375 1 0
1.5 1 0
1.25 0.875 0
1.375 0.875 0
1.25 1 0
1.375 1 0
1 0.75 0
1.125 0.75 0
1 0.875 0
1.125 0.875 0
1.125 0.75 0
1.25 0.75 0
1.125 0.875 0
1.25 0.875 0
1.125 0.875 0
1.25 0.875 0
1.125 1 0
1.25 1 0
1 0.875 0
1.125 0.875 0
1 1 0
1.125 1 0
2 0 0
2.125 0 0
2 0.125 0
2.125 0.125 0
2.125 0 0
2.25 0 0
2.125 0.125 0
2.25 0.125 0
2.125 0.125 0
2.25 0.125 0
2.125 0.25 0
2.25 0.25 0
2 0.125 0
2.125 0.125 0
2 0.25 0
2.125 0.25 0
2.25 0 0
2.375 0 0
2.25 0.125 0
2.375 0.125 0
2.375 0 0
2.5 0 0
2.375 0.125 0
2.5 0.125 0
2.375 0.125 0
2.5 0.125 0
2.375 0.25 0
2.5 0.25 0
2.25 0.125 0
2.375 0.125 0
2.25 0.25 0
2.375 0.25 0
2.25 0.25 0
2.375 0.25 0
2.25 0.375 0
2.375 0.375 0
2.375 0.25 0
2.5 0.25 0
2.375 0.375 0
2.5 0.375 0
2.375 0.375 0
2.5 0.375 0
2.375 0.5 0
2.5 0.5 0
2.25 0.375 0
2.375 0.375 0
2.25 0.5 0
2.375 0.5 0
2 0.25 0
2.125 0.25 0
2 0.375 0
2.125 0.375 0
2.125 0.25 0
2.25 0.25 0
2.125 0.375 0
2.25 0.375 0
2.125 0.375 0
2.25 0.375 0
2.125 0.5 0
2.25 0.5 0
2 0.375 0
2.125 0.375 0
2 0.5 0
2.125 0.5 0
2.5 0 0
2.625 0 0
2.5 0.125 0
2.625 0.125 0
2.625 0 0
2.75 0 0
2.625 0.125 0
2.75 0.125 0
2.625 0.125 0
2.75 0.125 0
2.625 0.25 0
2.75 0.25 0
2.5 0.125 0
2.625 0.125 0
2.5 0.25 0
2.625 0.25 0
2.75 0 0
2.875 0 0
2.75 0.125 0
2.875 0.125 0
2.875 0 0
3 0 0
2.875 0.125 0
3 0.125 0
2.875 0.125 0
3 0.125 0
2.875 0.25 0
3 0.25 0
2.75 0.125 0
2.875 0.125 0
2.75 0.25 0
2.875 0.25 0
2.75 0.25 0
2.875 0.25 0
2.75 0.375 0
2.875 0.375 0
2.875 0.25 0
3 0.25 0
2.875 0.375 0
3 0.375 0
2.875 0.375 0
3 0.375 0
2.875 0.5 0
3 0.5 0
2.75 0.375 0
2.875 0.375 0
2.75 0.5 0
2.875 0.5 0
2.5 0.25 0
2.625 0.25 0
2.5 0.375 0
2.625 0.375 0
2.625 0.25 0
2.75 0.25 0
2.625 0.375 0
2.75 0.375 0
2.625 0.375 0
2.75 0.375 0
2.625 0.5 0
2.75 0.5 0
2.5 0.375 0
2.625 0.375 0
2.5 0.5 0
2.625 0.5 0
2.5 0.5 0
2.625 0.5 0
2.5 0.625 0
2.625 0.625 0
2.625 0.5 0
2.75 0.5 0
2.625 0.625 0
2.75 0.625 0
2.625 0.625 0
2.75 0.625 0
2.625 0.75 0
2.75 0.75 0
2.5 0.625 0
2.625 0.625 0
2.5 0.75 0
2.625 0.75 0
2.75 0.5 0
2.875 0.5 0
2.75 0.625 0
2.875 0.625 0
2.875 0.5 0
3 0.5 0
2.875 0.625 0
3 0.625 0
2.875 0.625 0
3 0.625 0
2.875 0.75 0
3 0.75 0
2.75 0.625 0
2.875 0.625 0
2.75 0.75 0
2.875 0.75 0
2.75 0.75 0
2.875 0.75 0
2.75 0.875 0
2.875 0.875 0
2.875 0.75 0
3 0.75 0
2.875 0.875 0
3 0.875 0
2.875 0.875 0
3 0.875 0
2.875 1 0
3 1 0
2.75 0.875 0
2.875 0.875 0
2.75 1 0
2.875 1 0
2.5 0.75 0
2.625 0.75 0
2.5 0.875 0
2.625 0.875 0
2.625 0.75 0
2.75 0.75 0
2.625 0.875 0
2.75 0.875 0
2.625 0.875 0
2.75 0.875 0
2.625 1 0
2.75 1 0
2.5 0.875 0
2.625 0.875 0
2.5 1 0
2.625 1 0
2 0.5 0
2.125 0.5 0
2 0.625 0
2.125 0.625 0
2.125 0.5 0
2.25 0.5 0
2.125 0.625 0
2.25 0.625 0
2.125 0.625 0
2.25 0.625 0
2.125 0.75 0
2.25 0.75 0
2 0.625 0
2.125 0.625 0
2 0.75 0
2.125 0.75 0
2.25 0.5 0
2.375 0.5 0
2.25 0.625 0
2.375 0.625 0
2.375 0.5 0
2.5 0.5 0
2.375 0.625 0
2.5 0.625 0
2.375 0.625 0
2.5 0.625 0
2.375 0.75 0
2.5 0.75 0
2.25 0.625 0
2.375 0.625 0
2.25 0.75 0
2.375 0.75 0
2.25 0.75 0
2.375 0.75 0
2.25 0.875 0
2.375 0.875 0
2.375 0.75 0
2.5 0.75 0
2.375 0.875 0
2.5 0.875 0
2.375 0.875 0
2.5 0.875 0
2.375 1 0
2.5 1 0
2.25 0.875 0
2.375 0.875 0
2.25 1 0
2.375 1 0
2 0.75 0
2.125 0.75 0
2 0.875 0
2.125 0.875 0
2.125 0.75 0
2.25 0.75 0
2.125 0.875 0
2.25 0.875 0
2.125 0.875 0
2.25 0.875 0
2.125 1 0
2.25 1 0
2 0.875 0
2.125 0.875 0
2 1 0
2.125 1 0
3 0 0
3.125 0 0
3 0.125 0
3.125 0.125 0
3.125 0 0
3.25 0 0
3.125 0.125 0
3.25 0.125 0
3.125 0.125 0
3.25 0.125 0
3.125 0.25 0
3.25 0.25 0
3 0.125 0
3.125 0.125 0
3 0.25 0
3.125 0.25 0
3.25 0 0
3.375 0 0
3.25 0.125 0
3.375 0.125 0
3.375 0 0
3.5 0 0
3.375 0.125 0
3.5 0.125 0
3.375 0.125 0
3.5 0.125 0
3.375 0.25 0
3.5 0.25 0
3.25 0.125 0
3.375 0.125 0
3.25 0.25 0
3.375 0.25 0
3.25 0.25 0
3.375 0.25 0
3.25 0.375 0
3.375 0.375 0
3.375 0.25 0
3.5 0.25 0
3.375 0.375 0
3.5 0.375 0
3.375 0.375 0
3.5 0.375 0
3.375 0.5 0
3.5 0.5 0
3.25 0.375 0
3.375 0.375 0
3.25 0.5 0
[...]
<CellData Scalars="attribute">
<DataArray type="Int32" Name="attribute" format="ascii">
1
1
1
1
1
1
1
1
1
1
1
1
1
1
1
1
1
1
1
1
1
1
1
1
1
1
1
1
1
1
1
1
1
1
1
1
1
1
1
1
1
1
1
1
1
1
1
1
1
1
1
1
1
1
1
1
1
1
1
1
1
1
1
1
1
1
1
1
1
1
1
1
1
1
1
1
1
1
1
1
1
1
1
1
1
1
1
1
1
1
1
1
1
1
1
1
1
1
1
1
1
1
1
1
1
1
1
1
1
1
1
1
1
1
1
1
1
1
1
1
1
1
1
1
1
1
1
1
1
1
1
1
1
1
1
1
1
1
1
1
1
1
1
1
1
1
1
1
1
1
1
1
1
1
1
1
1
1
1
1
1
1
1
1
1
1
1
1
1
1
1
1
1
1
1
1
1
1
1
1
1
1
1
1
1
1
1
1
1
1
1
1
1
1
1
1
1
1
1
1
1
1
1
1
1
1
1
1
1
1
1
1
1
1
1
1
1
1
1
1
1
1
1
1
1
1
1
1
1
1
1
1
1
1
1
1
1
1
1
1
1
1
1
1
1
1
1
1
1
1
1
1
1
1
1
1
2
2
2
2
2
2
2
2
2
2
2
2
2
2
2
2
2
2
2
2
2
2
2
2
2
2
2
2
2
2
2
2
2
2
2
2
2
2
2
2
2
2
2
2
2
2
2
2
2
2
2
2
2
2
2
2
2
2
2
2
2
2
2
2
2
2
2
2
2
2
2
2
2
2
2
2
2
2
2
2
2
2
2
2
2
2
2
2
2
2
2
2
2
2
2
2
2
2
2
2
2
2
2
2
2
2
2
2
2
2
2
2
2
2
2
2
2
2
2
2
2
2
2
2
2
2
2
2
2
2
2
2
2
2
2
2
2
2
2
2
2
2
2
2
2
2
2
2
2
2
2
2
2
2
2
2
2
2
2
2
2
2
2
2
2
2
2
2
2
2
2
2
2
2
2
2
2
2
2
2
2
2
2
2
2
2
2
2
2
2
2
2
2
2
2
2
2
2
2
2
2
2
2
2
2
2
2
2
2
2
2
2
2
2
2
2
2
2
2
2
2
2
2
2
2
2
2
2
2
2
2
2
2
2
2
2
2
2
2
2
2
2
2
2
2
2
2
2
2
2
2
2
2
2
2
2
</DataArray>
</CellData>
<PointData >
<DataArray type="Float64" Name="Pressure" NumberOfComponents="1" format="ascii" >
-0.000239876
-2.3509e-07
-0.000392532
-3.89159e-07
-2.3509e-07
9.56079e-12
-3.89159e-07
1.65567e-11
-3.89159e-07
1.65567e-11
-2.6126e-07
1.12433e-11
-0.000392532
-3.89159e-07
-0.00026169
-2.6126e-07
9.56079e-12
-2.48879e-16
1.65567e-11
-4.4435e-16
-2.48879e-16
6.59913e-21
-4.4435e-16
1.22152e-20
-4.4435e-16
1.22152e-20
-3.09393e-16
8.73568e-21
1.65567e-11
-4.4435e-16
1.12433e-11
-3.09393e-16
1.12433e-11
-3.09393e-16
5.76173e-12
-1.58096e-16
-3.09393e-16
8.73568e-21
-1.58096e-16
4.46852e-21
-1.58096e-16
4.46852e-21
-5.23249e-18
1.41737e-22
5.76173e-12
-1.58096e-16
2.03084e-13
-5.23249e-18
-0.00026169
-2.6126e-07
-0.000130848
-1.32666e-07
-2.6126e-07
1.12433e-11
-1.32666e-07
5.76173e-12
-1.32666e-07
5.76173e-12
-2.9382e-09
2.03084e-13
-0.000130848
-1.32666e-07
-3.61557e-09
-2.9382e-09
6.59913e-21
-9.0941e-26
1.22152e-20
-1.74462e-25
-9.0941e-26
2.17423e-30
-1.74462e-25
4.1942e-30
-1.74462e-25
4.1942e-30
-1.2924e-25
3.1515e-30
1.22152e-20
-1.74462e-25
8.73568e-21
-1.2924e-25
2.17423e-30
-1.2687e-35
4.1942e-30
-2.69832e-35
-1.2687e-35
4.64916e-40
-2.69832e-35
9.10266e-40
-2.69832e-35
9.10266e-40
-2.18156e-35
7.04884e-40
4.1942e-30
-2.69832e-35
3.1515e-30
-2.18156e-35
3.1515e-30
-2.18156e-35
1.63841e-30
-1.15027e-35
-2.18156e-35
7.04884e-40
-1.15027e-35
3.74331e-40
-1.15027e-35
3.74331e-40
-3.31561e-37
9.53067e-42
1.63841e-30
-1.15027e-35
4.699e-32
-3.31561e-37
8.73568e-21
-1.2924e-25
4.46852e-21
-6.65158e-26
-1.2924e-25
3.1515e-30
-6.65158e-26
1.63841e-30
-6.65158e-26
1.63841e-30
-2.03123e-27
4.699e-32
4.46852e-21
-6.65158e-26
1.41737e-22
-2.03123e-27
1.41737e-22
-2.03123e-27
-4.24538e-21
6.33499e-26
-2.03123e-27
4.699e-32
6.33499e-26
-1.56672e-30
6.33499e-26
-1.56672e-30
1.28777e-25
-3.14317e-30
-4.24538e-21
6.33499e-26
-8.69462e-21
1.28777e-25
4.699e-32
-3.31561e-37
-1.56672e-30
1.10003e-35
-3.31561e-37
9.53067e-42
1.10003e-35
-3.60201e-40
1.10003e-35
-3.60201e-40
2.17568e-35
-7.03743e-40
-1.56672e-30
1.10003e-35
-3.14317e-30
2.17568e-35
-3.14317e-30
2.17568e-35
-4.26112e-30
2.73941e-35
2.17568e-35
-7.03743e-40
2.73941e-35
-9.23002e-40
2.73941e-35
-9.23002e-40
1.29639e-35
-4.73915e-40
-4.26112e-30
2.73941e-35
-2.22317e-30
1.29639e-35
-8.69462e-21
1.28777e-25
-1.24329e-20
1.77431e-25
1.28777e-25
-3.14317e-30
1.77431e-25
-4.26112e-30
1.77431e-25
-4.26112e-30
9.31481e-26
-2.22317e-30
-1.24329e-20
1.77431e-25
-6.77262e-21
9.31481e-26
-3.61557e-09
-2.9382e-09
0.000130842
1.27924e-07
-2.9382e-09
2.03084e-13
1.27924e-07
-5.4347e-12
1.27924e-07
-5.4347e-12
2.59921e-07
-1.11534e-11
0.000130842
1.27924e-07
0.000261689
2.59921e-07
2.03084e-13
-5.23249e-18
-5.4347e-12
1.49754e-16
-5.23249e-18
1.41737e-22
1.49754e-16
-4.24538e-21
1.49754e-16
-4.24538e-21
3.07453e-16
-8.69462e-21
-5.4347e-12
1.49754e-16
-1.11534e-11
3.07453e-16
-1.11534e-11
3.07453e-16
-1.6863e-11
4.52617e-16
3.07453e-16
-8.69462e-21
4.52617e-16
-1.24329e-20
4.52617e-16
-1.24329e-20
2.55917e-16
-6.77262e-21
-1.6863e-11
4.52617e-16
-9.87446e-12
2.55917e-16
0.000261689
2.59921e-07
0.000392537
3.93538e-07
2.59921e-07
-1.11534e-11
3.93538e-07
-1.6863e-11
3.93538e-07
-1.6863e-11
2.3973e-07
-9.87446e-12
0.000392537
3.93538e-07
0.000239882
2.3973e-07
4.64916e-40
4.57933e-46
9.10266e-40
1.65419e-46
4.57933e-46
7.75429e-50
1.65419e-46
1.50473e-49
1.65419e-46
1.50473e-49
-2.97947e-46
1.17434e-49
9.10266e-40
1.65419e-46
7.04884e-40
-2.97947e-46
7.75429e-50
4.70157e-55
1.50473e-49
7.95629e-55
4.70157e-55
1.0757e-59
7.95629e-55
2.04986e-59
7.95629e-55
2.04986e-59
5.49119e-55
1.59112e-59
1.50473e-49
7.95629e-55
1.17434e-49
5.49119e-55
1.17434e-49
5.49119e-55
6.32906e-50
2.86218e-55
5.49119e-55
1.59112e-59
2.86218e-55
8.62723e-60
2.86218e-55
8.62723e-60
4.81155e-57
1.64106e-61
6.32906e-50
2.86218e-55
1.40218e-51
4.81155e-57
7.04884e-40
-2.97947e-46
3.74331e-40
-2.02218e-46
-2.97947e-46
1.17434e-49
-2.02218e-46
6.32906e-50
-2.02218e-46
6.32906e-50
-1.14017e-47
1.40218e-51
3.74331e-40
-2.02218e-46
9.53067e-42
-1.14017e-47
1.0757e-59
9.11508e-65
2.04986e-59
1.63391e-64
9.11508e-65
1.21803e-69
1.63391e-64
2.28774e-69
1.63391e-64
2.28774e-69
1.20041e-64
1.76355e-69
2.04986e-59
1.63391e-64
1.59112e-59
1.20041e-64
1.21803e-69
1.07932e-74
2.28774e-69
1.97072e-74
1.07932e-74
1.0952e-79
1.97072e-74
2.04012e-79
1.97072e-74
2.04012e-79
1.48038e-74
1.56665e-79
2.28774e-69
1.97072e-74
1.76355e-69
1.48038e-74
1.76355e-69
1.48038e-74
9.57534e-70
7.95901e-75
1.48038e-74
1.56665e-79
7.95901e-75
8.5081e-80
7.95901e-75
8.5081e-80
1.14468e-76
1.19184e-81
9.57534e-70
7.95901e-75
1.55991e-71
1.14468e-76
1.59112e-59
1.20041e-64
8.62723e-60
6.3917e-65
1.20041e-64
1.76355e-69
6.3917e-65
9.57534e-70
6.3917e-65
9.57534e-70
1.02703e-66
1.55991e-71
8.62723e-60
6.3917e-65
1.64106e-61
1.02703e-66
1.64106e-61
1.02703e-66
-8.39103e-60
-6.24638e-65
1.02703e-66
1.55991e-71
-6.24638e-65
-9.35239e-70
-6.24638e-65
-9.35239e-70
-1.2008e-64
-1.76294e-69
-8.39103e-60
-6.24638e-65
-1.59011e-59
-1.2008e-64
1.55991e-71
1.14468e-76
-9.35239e-70
-7.79712e-75
1.14468e-76
1.19184e-81
-7.79712e-75
-8.33851e-80
-7.79712e-75
-8.33851e-80
-1.48062e-74
-1.56638e-79
-9.35239e-70
-7.79712e-75
-1.76294e-69
-1.48062e-74
-1.76294e-69
-1.48062e-74
-2.30879e-69
-1.98778e-74
-1.48062e-74
-1.56638e-79
-1.98778e-74
-2.0565e-79
-1.98778e-74
-2.0565e-79
-1.09148e-74
-1.10682e-79
-2.30879e-69
-1.98778e-74
-1.23294e-69
-1.09148e-74
-1.59011e-59
-1.2008e-64
-2.07151e-59
-1.65012e-64
-1.2008e-64
-1.76294e-69
-1.65012e-64
-2.30879e-69
-1.65012e-64
-2.30879e-69
-9.232e-65
-1.23294e-69
-2.07151e-59
-1.65012e-64
-1.09098e-59
-9.232e-65
9.53067e-42
-1.14017e-47
-3.60201e-40
1.84379e-46
-1.14017e-47
1.40218e-51
1.84379e-46
-6.12496e-50
1.84379e-46
-6.12496e-50
2.92265e-46
-1.17312e-49
-3.60201e-40
1.84379e-46
-7.03743e-40
2.92265e-46
1.40218e-51
4.81155e-57
-6.12496e-50
-2.79442e-55
4.81155e-57
1.64106e-61
-2.79442e-55
-8.39103e-60
-2.79442e-55
-8.39103e-60
-5.49628e-55
-1.59011e-59
-6.12496e-50
-2.79442e-55
-1.17312e-49
-5.49628e-55
-1.17312e-49
-5.49628e-55
-1.52303e-49
-8.04607e-55
-5.49628e-55
-1.59011e-59
-8.04607e-55
-2.07151e-59
-8.04607e-55
-2.07151e-59
-4.76898e-55
-1.09098e-59
-1.52303e-49
-8.04607e-55
-7.88284e-50
-4.76898e-55
-7.03743e-40
2.92265e-46
-9.23002e-40
-1.66316e-46
2.92265e-46
-1.17312e-49
-1.66316e-46
-1.52303e-49
-1.66316e-46
-1.52303e-49
-4.62454e-46
-7.88284e-50
-9.23002e-40
-1.66316e-46
-4.73915e-40
-4.62454e-46
1.0952e-79
9.14639e-85
2.04012e-79
1.68236e-84
9.14639e-85
7.7581e-90
1.68236e-84
1.43926e-89
1.68236e-84
1.43926e-89
1.27719e-84
1.10392e-89
2.04012e-79
1.68236e-84
1.56665e-79
1.27719e-84
7.7581e-90
5.8954e-95
1.43926e-89
1.08765e-94
5.8954e-95
4.35586e-100
1.08765e-94
8.06492e-100
1.08765e-94
8.06492e-100
8.30302e-95
6.18669e-100
1.43926e-89
1.08765e-94
1.10392e-89
8.30302e-95
1.10392e-89
8.30302e-95
5.99642e-90
4.50039e-95
8.30302e-95
6.18669e-100
4.50039e-95
3.36162e-100
4.50039e-95
3.36162e-100
5.00469e-97
3.53197e-102
5.99642e-90
4.50039e-95
7.26019e-92
5.00469e-97
1.56665e-79
1.27719e-84
8.5081e-80
6.90263e-85
1.27719e-84
1.10392e-89
6.90263e-85
5.99642e-90
6.90263e-85
5.99642e-90
8.75391e-87
7.26019e-92
8.5081e-80
6.90263e-85
1.19184e-81
8.75391e-87
4.35586e-100
2.98534e-105
8.06492e-100
5.51392e-105
2.98534e-105
1.96042e-110
5.51392e-105
3.62604e-110
5.51392e-105
3.62604e-110
4.22242e-105
2.78331e-110
8.06492e-100
5.51392e-105
6.18669e-100
4.22242e-105
1.96042e-110
1.21251e-115
3.62604e-110
2.24021e-115
1.21251e-115
7.15765e-121
2.24021e-115
1.3231e-120
2.24021e-115
1.3231e-120
1.71869e-115
1.01631e-120
3.62604e-110
2.24021e-115
2.78331e-110
1.71869e-115
2.78331e-110
1.71869e-115
1.5128e-110
9.33826e-116
1.71869e-115
1.01631e-120
9.33826e-116
5.52507e-121
9.33826e-116
5.52507e-121
7.94027e-118
4.40305e-123
1.5128e-110
9.33826e-116
1.38305e-112
7.94027e-118
6.18669e-100
4.22242e-105
3.36162e-100
2.29226e-105
4.22242e-105
2.78331e-110
2.29226e-105
1.5128e-110
2.29226e-105
1.5128e-110
2.23003e-107
1.38305e-112
3.36162e-100
2.29226e-105
3.53197e-102
2.23003e-107
3.53197e-102
2.23003e-107
-3.31158e-100
-2.26073e-105
2.23003e-107
1.38305e-112
-2.26073e-105
-1.49322e-110
-2.26073e-105
-1.49322e-110
-4.22247e-105
-2.78324e-110
-3.31158e-100
-2.26073e-105
-6.18642e-100
-4.22247e-105
1.38305e-112
7.94027e-118
-1.49322e-110
-9.22596e-116
7.94027e-118
4.40305e-123
-9.22596e-116
-5.46275e-121
-9.22596e-116
-5.46275e-121
-1.71868e-115
-1.01629e-120
-1.49322e-110
-9.22596e-116
-2.78324e-110
-1.71868e-115
-2.78324e-110
-1.71868e-115
-3.64542e-110
-2.25141e-115
-1.71868e-115
-1.01629e-120
-2.25141e-115
-1.32927e-120
-2.25141e-115
-1.32927e-120
-1.22044e-115
-7.20133e-121
-3.64542e-110
-2.25141e-115
-1.97414e-110
-1.22044e-115
-6.18642e-100
-4.22247e-105
-8.11429e-100
-5.54553e-105
-4.22247e-105
-2.78324e-110
-5.54553e-105
-3.64542e-110
-5.54553e-105
-3.64542e-110
-3.00772e-105
-1.97414e-110
-8.11429e-100
-5.54553e-105
-4.39086e-100
-3.00772e-105
1.19184e-81
8.75391e-87
-8.33851e-80
-6.77887e-85
8.75391e-87
7.26019e-92
-6.77887e-85
-5.89339e-90
-6.77887e-85
-5.89339e-90
-1.27729e-84
-1.10382e-89
-8.33851e-80
-6.77887e-85
-1.56638e-79
-1.27729e-84
7.26019e-92
5.00469e-97
-5.89339e-90
-4.42964e-95
5.00469e-97
3.53197e-102
-4.42964e-95
-3.31158e-100
-4.42964e-95
-3.31158e-100
-8.30332e-95
-6.18642e-100
-5.89339e-90
-4.42964e-95
-1.10382e-89
-8.30332e-95
-1.10382e-89
-8.30332e-95
-1.44935e-89
-1.0948e-94
-8.30332e-95
-6.18642e-100
-1.0948e-94
-8.11429e-100
-1.0948e-94
-8.11429e-100
-5.94607e-95
-4.39086e-100
-1.44935e-89
-1.0948e-94
-7.82967e-90
-5.94607e-95
-1.56638e-79
-1.27729e-84
-2.0565e-79
-1.69506e-84
-1.27729e-84
-1.10382e-89
-1.69506e-84
-1.44935e-89
-1.69506e-84
-1.44935e-89
-9.23648e-85
-7.82967e-90
-2.0565e-79
-1.69506e-84
-1.10682e-79
-9.23648e-85
7.15765e-121
4.00928e-126
1.3231e-120
7.40713e-126
4.00928e-126
2.14331e-131
7.40713e-126
3.96023e-131
7.40713e-126
3.96023e-131
5.68942e-126
3.04388e-131
1.3231e-120
7.40713e-126
1.01631e-120
5.68942e-126
2.14331e-131
1.09175e-136
3.96023e-131
2.0166e-136
1.09175e-136
5.31357e-142
2.0166e-136
9.81451e-142
2.0166e-136
9.81451e-142
1.55017e-136
7.54745e-142
3.96023e-131
2.0166e-136
3.04388e-131
1.55017e-136
3.04388e-131
1.55017e-136
1.65497e-131
8.42786e-137
1.55017e-136
7.54745e-142
8.42786e-137
4.10372e-142
8.42786e-137
4.10372e-142
5.47237e-139
2.49286e-144
1.65497e-131
8.42786e-137
1.151e-133
5.47237e-139
1.01631e-120
5.68942e-126
5.52507e-121
3.09259e-126
5.68942e-126
3.04388e-131
3.09259e-126
1.65497e-131
3.09259e-126
1.65497e-131
2.29781e-128
1.151e-133
5.52507e-121
3.09259e-126
4.40305e-123
2.29781e-128
5.31357e-142
2.47075e-147
9.81451e-142
4.56266e-147
2.47075e-147
1.09929e-152
4.56266e-147
2.02982e-152
4.56266e-147
2.02982e-152
3.50927e-147
1.56159e-152
9.81451e-142
4.56266e-147
7.54745e-142
3.50927e-147
1.09929e-152
4.68157e-158
2.02982e-152
8.64307e-158
4.68157e-158
1.91022e-163
8.64307e-158
3.52623e-163
8.64307e-158
3.52623e-163
6.65029e-158
2.71369e-163
2.02982e-152
8.64307e-158
1.56159e-152
6.65029e-158
1.56159e-152
6.65029e-158
8.49054e-153
3.61567e-158
6.65029e-158
2.71369e-163
3.61567e-158
1.47536e-163
3.61567e-158
1.47536e-163
1.79462e-160
6.84995e-166
8.49054e-153
3.61567e-158
4.50786e-155
1.79462e-160
7.54745e-142
3.50927e-147
4.10372e-142
1.90799e-147
3.50927e-147
1.56159e-152
1.90799e-147
8.49054e-153
1.90799e-147
8.49054e-153
1.08298e-149
4.50786e-155
4.10372e-142
1.90799e-147
2.49286e-144
1.08298e-149
2.49286e-144
1.08298e-149
-4.06842e-142
-1.89265e-147
1.08298e-149
4.50786e-155
-1.89265e-147
-8.42668e-153
-1.89265e-147
-8.42668e-153
-3.50919e-147
-1.56155e-152
-4.06842e-142
-1.89265e-147
-7.54727e-142
-3.50919e-147
4.50786e-155
1.79462e-160
-8.42668e-153
-3.59024e-158
1.79462e-160
6.84995e-166
-3.59024e-158
-1.46565e-163
-3.59024e-158
-1.46565e-163
-6.6501e-158
-2.7136e-163
-8.42668e-153
-3.59024e-158
-1.56155e-152
-6.6501e-158
-1.56155e-152
-6.6501e-158
-2.0361e-152
-8.66802e-158
-6.6501e-158
-2.7136e-163
-8.66802e-158
-3.53573e-163
-8.66802e-158
-3.53573e-163
-4.69924e-158
-1.91695e-163
-2.0361e-152
-8.66802e-158
-1.10373e-152
-4.69924e-158
-7.54727e-142
-3.50919e-147
-9.8493e-142
-4.57777e-147
-3.50919e-147
-1.56155e-152
-4.57777e-147
-2.0361e-152
-4.57777e-147
-2.0361e-152
-2.48144e-147
-1.10373e-152
-9.8493e-142
-4.57777e-147
-5.33821e-142
-2.48144e-147
4.40305e-123
2.29781e-128
-5.46275e-121
-3.06008e-126
2.29781e-128
1.151e-133
-3.06008e-126
-1.63867e-131
-3.06008e-126
-1.63867e-131
-5.68936e-126
-3.04381e-131
-5.46275e-121
-3.06008e-126
-1.01629e-120
-5.68936e-126
1.151e-133
5.47237e-139
-1.63867e-131
-8.3504e-137
5.47237e-139
2.49286e-144
-8.3504e-137
-4.06842e-142
-8.3504e-137
-4.06842e-142
-1.55015e-136
-7.54727e-142
-1.63867e-131
-8.3504e-137
-3.04381e-131
-1.55015e-136
-3.04381e-131
-1.55015e-136
-3.97632e-131
-2.02426e-136
-1.55015e-136
-7.54727e-142
-2.02426e-136
-9.8493e-142
-2.02426e-136
-9.8493e-142
-1.09717e-136
-5.33821e-142
-3.97632e-131
-2.02426e-136
-2.15471e-131
-1.09717e-136
-1.01629e-120
-5.68936e-126
-1.32927e-120
-7.43939e-126
-5.68936e-126
-3.04381e-131
-7.43939e-126
-3.97632e-131
-7.43939e-126
-3.97632e-131
-4.03213e-126
-2.15471e-131
-1.32927e-120
-7.43939e-126
-7.20133e-121
-4.03213e-126
1.91022e-163
7.47111e-169
3.52623e-163
1.37896e-168
7.47111e-169
2.80268e-174
1.37896e-168
5.17238e-174
1.37896e-168
5.17238e-174
1.06134e-168
3.98152e-174
3.52623e-163
1.37896e-168
2.71369e-163
1.06134e-168
2.80268e-174
1.00885e-179
5.17238e-174
1.86161e-179
1.00885e-179
3.48601e-185
1.86161e-179
6.43199e-185
1.86161e-179
6.43199e-185
1.43315e-179
4.9521e-185
5.17238e-174
1.86161e-179
3.98152e-174
1.43315e-179
3.98152e-174
1.43315e-179
2.16446e-174
7.7906e-180
1.43315e-179
4.9521e-185
7.7906e-180
2.69184e-185
7.7906e-180
2.69184e-185
2.96058e-182
9.57201e-188
2.16446e-174
7.7906e-180
8.79251e-177
2.96058e-182
2.71369e-163
1.06134e-168
1.47536e-163
5.76996e-169
1.06134e-168
3.98152e-174
5.76996e-169
2.16446e-174
5.76996e-169
2.16446e-174
2.50537e-171
8.79251e-177
1.47536e-163
5.76996e-169
6.84995e-166
2.50537e-171
3.48601e-185
1.15668e-190
6.43199e-185
2.13395e-190
1.15668e-190
3.68633e-196
2.13395e-190
6.8002e-196
2.13395e-190
6.8002e-196
1.6431e-190
5.23641e-196
6.43199e-185
2.13395e-190
4.9521e-185
1.6431e-190
3.68633e-196
1.12861e-201
6.8002e-196
2.08175e-201
1.12861e-201
3.31976e-207
2.08175e-201
6.12285e-207
2.08175e-201
6.12285e-207
1.60314e-201
4.71543e-207
6.8002e-196
2.08175e-201
5.23641e-196
1.60314e-201
5.23641e-196
1.60314e-201
2.84609e-196
8.71293e-202
1.60314e-201
4.71543e-207
8.71293e-202
2.56268e-207
8.71293e-202
2.56268e-207
2.53997e-204
6.99401e-210
2.84609e-196
8.71293e-202
8.86383e-199
2.53997e-204
4.9521e-185
1.6431e-190
2.69184e-185
8.93099e-191
1.6431e-190
5.23641e-196
8.93099e-191
2.84609e-196
8.93099e-191
2.84609e-196
2.97182e-193
8.86383e-199
2.69184e-185
8.93099e-191
9.57201e-188
2.97182e-193
9.57201e-188
2.97182e-193
-2.67825e-185
-8.88878e-191
2.97182e-193
8.86383e-199
-8.88878e-191
-2.8335e-196
-8.88878e-191
-2.8335e-196
-1.64303e-190
-5.23619e-196
-2.67825e-185
-8.88878e-191
-4.95191e-185
-1.64303e-190
8.86383e-199
2.53997e-204
-2.8335e-196
-8.67681e-202
2.53997e-204
6.99401e-210
-8.67681e-202
-2.55272e-207
-8.67681e-202
-2.55272e-207
-1.60307e-201
-4.71522e-207
-2.8335e-196
-8.67681e-202
-5.23619e-196
-1.60307e-201
-5.23619e-196
-1.60307e-201
-6.81232e-196
-2.08522e-201
-1.60307e-201
-4.71522e-207
-2.08522e-201
-6.13236e-207
-2.08522e-201
-6.13236e-207
-1.13106e-201
-3.32649e-207
-6.81232e-196
-2.08522e-201
-3.69492e-196
-1.13106e-201
-4.95191e-185
-1.64303e-190
-6.44516e-185
-2.13802e-190
-1.64303e-190
-5.23619e-196
-2.13802e-190
-6.81232e-196
-2.13802e-190
-6.81232e-196
-1.15957e-190
-3.69492e-196
-6.44516e-185
-2.13802e-190
-3.49533e-185
-1.15957e-190
6.84995e-166
2.50537e-171
-1.46565e-163
-5.73443e-169
2.50537e-171
8.79251e-177
-5.73443e-169
-2.15199e-174
-5.73443e-169
-2.15199e-174
-1.0613e-168
-3.98137e-174
-1.46565e-163
-5.73443e-169
-2.7136e-163
-1.0613e-168
8.79251e-177
2.96058e-182
-2.15199e-174
-7.74858e-180
2.96058e-182
9.57201e-188
-7.74858e-180
-2.67825e-185
-7.74858e-180
-2.67825e-185
-1.4331e-179
-4.95191e-185
-2.15199e-174
-7.74858e-180
-3.98137e-174
-1.4331e-179
-3.98137e-174
-1.4331e-179
-5.18453e-174
-1.8657e-179
-1.4331e-179
-4.95191e-185
-1.8657e-179
-6.44516e-185
-1.8657e-179
-6.44516e-185
-1.01174e-179
-3.49533e-185
-5.18453e-174
-1.8657e-179
-2.81128e-174
-1.01174e-179
-2.7136e-163
-1.0613e-168
-3.53573e-163
-1.38243e-168
-1.0613e-168
-3.98137e-174
-1.38243e-168
-5.18453e-174
-1.38243e-168
-5.18453e-174
-7.49568e-169
-2.81128e-174
-3.53573e-163
-1.38243e-168
-1.91695e-163
-7.49568e-169
3.31976e-207
9.38185e-213
6.12285e-207
1.73021e-212
9.38185e-213
2.54716e-218
1.73021e-212
4.69712e-218
1.73021e-212
4.69712e-218
1.33257e-212
3.61779e-218
6.12285e-207
1.73021e-212
4.71543e-207
1.33257e-212
2.54716e-218
6.64257e-224
4.69712e-218
1.22484e-223
6.64257e-224
1.66343e-229
1.22484e-223
3.06702e-229
1.22484e-223
3.06702e-229
9.4343e-224
2.36246e-229
4.69712e-218
1.22484e-223
3.61779e-218
9.4343e-224
3.61779e-218
9.4343e-224
1.96596e-218
5.12651e-224
9.4343e-224
2.36246e-229
5.12651e-224
1.28369e-229
5.12651e-224
1.28369e-229
1.14907e-226
2.69546e-232
1.96596e-218
5.12651e-224
4.70471e-221
1.14907e-226
4.71543e-207
1.33257e-212
2.56268e-207
7.2417e-213
1.33257e-212
3.61779e-218
7.2417e-213
1.96596e-218
7.2417e-213
1.96596e-218
1.85054e-215
4.70471e-221
2.56268e-207
7.2417e-213
6.99401e-210
1.85054e-215
1.66343e-229
3.99839e-235
3.06702e-229
7.3717e-235
3.99839e-235
9.22013e-241
7.3717e-235
1.69978e-240
7.3717e-235
1.69978e-240
5.67849e-235
1.3094e-240
3.06702e-229
7.3717e-235
2.36246e-229
5.67849e-235
9.22013e-241
2.03819e-246
1.69978e-240
3.7573e-246
2.03819e-246
4.31522e-252
3.7573e-246
7.95444e-252
3.7573e-246
7.95444e-252
2.89447e-246
6.12794e-252
1.69978e-240
3.7573e-246
1.3094e-240
2.89447e-246
1.3094e-240
2.89447e-246
7.11429e-241
1.57258e-246
2.89447e-246
6.12794e-252
1.57258e-246
3.32922e-252
1.57258e-246
3.32922e-252
2.7179e-249
5.3947e-255
7.11429e-241
1.57258e-246
1.31174e-243
2.7179e-249
2.36246e-229
5.67849e-235
1.28369e-229
3.08538e-235
5.67849e-235
1.3094e-240
3.08538e-235
7.11429e-241
3.08538e-235
7.11429e-241
6.0703e-238
1.31174e-243
1.28369e-229
3.08538e-235
2.69546e-232
6.0703e-238
2.69546e-232
6.0703e-238
-1.27984e-229
-3.07671e-235
6.0703e-238
1.31174e-243
-3.07671e-235
-7.09554e-241
-3.07671e-235
-7.09554e-241
-5.6782e-235
-1.30933e-240
-1.27984e-229
-3.07671e-235
-2.36235e-229
-5.6782e-235
1.31174e-243
2.7179e-249
-7.09554e-241
-1.56869e-246
2.7179e-249
5.3947e-255
-1.56869e-246
-3.32149e-252
-1.56869e-246
-3.32149e-252
-2.89431e-246
-6.12762e-252
-7.09554e-241
-1.56869e-246
-1.30933e-240
-2.89431e-246
-1.30933e-240
-2.89431e-246
-1.70152e-240
-3.76089e-246
-2.89431e-246
-6.12762e-252
-3.76089e-246
-7.96152e-252
-3.76089e-246
-7.96152e-252
-2.04073e-246
-4.32024e-252
-1.70152e-240
-3.76089e-246
-9.23246e-241
-2.04073e-246
-2.36235e-229
-5.6782e-235