<VTKFile type="UnstructuredGrid" version="0.1" byte_order="LittleEndian">
<UnstructuredGrid>
<Piece NumberOfPoints="2048" NumberOfCells="512">
<Points>
<DataArray type="Float64" NumberOfComponents="3" format="ascii">
0 0 0
0.125 0 0
0 0.125 0
0.125 0.125 0
0.125 0 0
0.25 0 0
0.125 0.125 0
0.25 0.125 0
0.125 0.125 0
0.25 0.125 0
0.125 0.25 0
0.25 0.25 0
0 0.125 0
0.125 0.125 0
0 0.25 0
0.125 0.25 0
0.25 0 0
0.375 0 0
0.25 0.125 0
0.375 0.125 0
0.375 0 0
0.5 0 0
0.375 0.125 0
0.5 0.125 0
0.375 0.125 0
0.5 0.125 0
0.375 0.25 0
0.5 0.25 0
0.25 0.125 0
0.375 0.125 0
0.25 0.25 0
0.375 0.25 0
0.25 0.25 0
0.375 0.25 0
0.25 0.375 0
0.375 0.375 0
0.375 0.25 0
0.5 0.25 0
0.375 0.375 0
0.5 0.375 0
0.375 0.375 0
0.5 0.375 0
0.375 0.5 0
0.5 0.5 0
0.25 0.375 0
0.375 0.375 0
0.25 0.5 0
0.375 0.5 0
0 0.25 0
0.125 0.25 0
0 0.375 0
0.125 0.375 0
0.125 0.25 0
0.25 0.25 0
0.125 0.375 0
0.25 0.375 0
0.125 0.375 0
0.25 0.375 0
0.125 0.5 0
0.25 0.5 0
0 0.375 0
0.125 0.375 0
0 0.5 0
0.125 0.5 0
0.5 0 0
0.625 0 0
0.5 0.125 0
0.625 0.125 0
0.625 0 0
0.75 0 0
0.625 0.125 0
0.75 0.125 0
0.625 0.125 0
0.75 0.125 0
0.625 0.25 0
0.75 0.25 0
0.5 0.125 0
0.625 0.125 0
0.5 0.25 0
0.625 0.25 0
0.75 0 0
0.875 0 0
0.75 0.125 0
0.875 0.125 0
0.875 0 0
1 0 0
0.875 0.125 0
1 0.125 0
0.875 0.125 0
1 0.125 0
0.875 0.25 0
1 0.25 0
0.75 0.125 0
0.875 0.125 0
0.75 0.25 0
0.875 0.25 0
0.75 0.25 0
0.875 0.25 0
0.75 0.375 0
0.875 0.375 0
0.875 0.25 0
1 0.25 0
0.875 0.375 0
1 0.375 0
0.875 0.375 0
1 0.375 0
0.875 0.5 0
1 0.5 0
0.75 0.375 0
0.875 0.375 0
0.75 0.5 0
0.875 0.5 0
0.5 0.25 0
0.625 0.25 0
0.5 0.375 0
0.625 0.375 0
0.625 0.25 0
0.75 0.25 0
0.625 0.375 0
0.75 0.375 0
0.625 0.375 0
0.75 0.375 0
0.625 0.5 0
0.75 0.5 0
0.5 0.375 0
0.625 0.375 0
0.5 0.5 0
0.625 0.5 0
0.5 0.5 0
0.625 0.5 0
0.5 0.625 0
0.625 0.625 0
0.625 0.5 0
0.75 0.5 0
0.625 0.625 0
0.75 0.625 0
0.625 0.625 0
0.75 0.625 0
0.625 0.75 0
0.75 0.75 0
0.5 0.625 0
0.625 0.625 0
0.5 0.75 0
0.625 0.75 0
0.75 0.5 0
0.875 0.5 0
0.75 0.625 0
0.875 0.625 0
0.875 0.5 0
1 0.5 0
0.875 0.625 0
1 0.625 0
0.875 0.625 0
1 0.625 0
0.875 0.75 0
1 0.75 0
0.75 0.625 0
0.875 0.625 0
0.75 0.75 0
0.875 0.75 0
0.75 0.75 0
0.875 0.75 0
0.75 0.875 0
0.875 0.875 0
0.875 0.75 0
1 0.75 0
0.875 0.875 0
1 0.875 0
0.875 0.875 0
1 0.875 0
0.875 1 0
1 1 0
0.75 0.875 0
0.875 0.875 0
0.75 1 0
0.875 1 0
0.5 0.75 0
0.625 0.75 0
0.5 0.875 0
0.625 0.875 0
0.625 0.75 0
0.75 0.75 0
0.625 0.875 0
0.75 0.875 0
0.625 0.875 0
0.75 0.875 0
0.625 1 0
0.75 1 0
0.5 0.875 0
0.625 0.875 0
0.5 1 0
0.625 1 0
0 0.5 0
0.125 0.5 0
0 0.625 0
0.125 0.625 0
0.125 0.5 0
0.25 0.5 0
0.125 0.625 0
0.25 0.625 0
0.125 0.625 0
0.25 0.625 0
0.125 0.75 0
0.25 0.75 0
0 0.625 0
0.125 0.625 0
0 0.75 0
0.125 0.75 0
0.25 0.5 0
0.375 0.5 0
0.25 0.625 0
0.375 0.625 0
0.375 0.5 0
0.5 0.5 0
0.375 0.625 0
0.5 0.625 0
0.375 0.625 0
0.5 0.625 0
0.375 0.75 0
0.5 0.75 0
0.25 0.625 0
0.375 0.625 0
0.25 0.75 0
0.375 0.75 0
0.25 0.75 0
0.375 0.75 0
0.25 0.875 0
0.375 0.875 0
0.375 0.75 0
0.5 0.75 0
0.375 0.875 0
0.5 0.875 0
0.375 0.875 0
0.5 0.875 0
0.375 1 0
0.5 1 0
0.25 0.875 0
0.375 0.875 0
0.25 1 0
0.375 1 0
0 0.75 0
0.125 0.75 0
0 0.875 0
0.125 0.875 0
0.125 0.75 0
0.25 0.75 0
0.125 0.875 0
0.25 0.875 0
0.125 0.875 0
0.25 0.875 0
0.125 1 0
0.25 1 0
0 0.875 0
0.125 0.875 0
0 1 0
0.125 1 0
1 0 0
1.125 0 0
1 0.125 0
1.125 0.125 0
1.125 0 0
1.25 0 0
1.125 0.125 0
1.25 0.125 0
1.125 0.125 0
1.25 0.125 0
1.125 0.25 0
1.25 0.25 0
1 0.125 0
1.125 0.125 0
1 0.25 0
1.125 0.25 0
1.25 0 0
1.375 0 0
1.25 0.125 0
1.375 0.125 0
1.375 0 0
1.5 0 0
1.375 0.125 0
1.5 0.125 0
1.375 0.125 0
1.5 0.125 0
1.375 0.25 0
1.5 0.25 0
1.25 0.125 0
1.375 0.125 0
1.25 0.25 0
1.375 0.25 0
1.25 0.25 0
1.375 0.25 0
1.25 0.375 0
1.375 0.375 0
1.375 0.25 0
1.5 0.25 0
1.375 0.375 0
1.5 0.375 0
1.375 0.375 0
1.5 0.375 0
1.375 0.5 0
1.5 0.5 0
1.25 0.375 0
1.375 0.375 0
1.25 0.5 0
1.375 0.5 0
1 0.25 0
1.125 0.25 0
1 0.375 0
1.125 0.375 0
1.125 0.25 0
1.25 0.25 0
1.125 0.375 0
1.25 0.375 0
1.125 0.375 0
1.25 0.375 0
1.125 0.5 0
1.25 0.5 0
1 0.375 0
1.125 0.375 0
1 0.5 0
1.125 0.5 0
1.5 0 0
1.625 0 0
1.5 0.125 0
1.625 0.125 0
1.625 0 0
1.75 0 0
1.625 0.125 0
1.75 0.125 0
1.625 0.125 0
1.75 0.125 0
1.625 0.25 0
1.75 0.25 0
1.5 0.125 0
1.625 0.125 0
1.5 0.25 0
1.625 0.25 0
1.75 0 0
1.875 0 0
1.75 0.125 0
1.875 0.125 0
1.875 0 0
2 0 0
1.875 0.125 0
2 0.125 0
1.875 0.125 0
2 0.125 0
1.875 0.25 0
2 0.25 0
1.75 0.125 0
1.875 0.125 0
1.75 0.25 0
1.875 0.25 0
1.75 0.25 0
1.875 0.25 0
1.75 0.375 0
1.875 0.375 0
1.875 0.25 0
2 0.25 0
1.875 0.375 0
2 0.375 0
1.875 0.375 0
2 0.375 0
1.875 0.5 0
2 0.5 0
1.75 0.375 0
1.875 0.375 0
1.75 0.5 0
1.875 0.5 0
1.5 0.25 0
1.625 0.25 0
1.5 0.375 0
1.625 0.375 0
1.625 0.25 0
1.75 0.25 0
1.625 0.375 0
1.75 0.375 0
1.625 0.375 0
1.75 0.375 0
1.625 0.5 0
1.75 0.5 0
1.5 0.375 0
1.625 0.375 0
1.5 0.5 0
1.625 0.5 0
1.5 0.5 0
1.625 0.5 0
1.5 0.625 0
1.625 0.625 0
1.625 0.5 0
1.75 0.5 0
1.625 0.625 0
1.75 0.625 0
1.625 0.625 0
1.75 0.625 0
1.625 0.75 0
1.75 0.75 0
1.5 0.625 0
1.625 0.625 0
1.5 0.75 0
1.625 0.75 0
1.75 0.5 0
1.875 0.5 0
1.75 0.625 0
1.875 0.625 0
1.875 0.5 0
2 0.5 0
1.875 0.625 0
2 0.625 0
1.875 0.625 0
2 0.625 0
1.875 0.75 0
2 0.75 0
1.75 0.625 0
1.875 0.625 0
1.75 0.75 0
1.875 0.75 0
1.75 0.75 0
1.875 0.75 0
1.75 0.875 0
1.875 0.875 0
1.875 0.75 0
2 0.75 0
1.875 0.875 0
2 0.875 0
1.875 0.875 0
2 0.875 0
1.875 1 0
2 1 0
1.75 0.875 0
1.875 0.875 0
1.75 1 0
1.875 1 0
1.5 0.75 0
1.625 0.75 0
1.5 0.875 0
1.625 0.875 0
1.625 0.75 0
1.75 0.75 0
1.625 0.875 0
1.75 0.875 0
1.625 0.875 0
1.75 0.875 0
1.625 1 0
1.75 1 0
1.5 0.875 0
1.625 0.875 0
1.5 1 0
1.625 1 0
1 0.5 0
1.125 0.5 0
1 0.625 0
1.125 0.625 0
1.125 0.5 0
1.25 0.5 0
1.125 0.625 0
1.25 0.625 0
1.125 0.625 0
1.25 0.625 0
1.125 0.75 0
1.25 0.75 0
1 0.625 0
1.125 0.625 0
1 0.75 0
1.125 0.75 0
1.25 0.5 0
1.375 0.5 0
1.25 0.625 0
1.375 0.625 0
1.375 0.5 0
1.5 0.5 0
1.375 0.625 0
1.5 0.625 0
1.375 0.625 0
1.5 0.625 0
1.375 0.75 0
1.5 0.75 0
1.25 0.625 0
1.375 0.625 0
1.25 0.75 0
1.375 0.75 0
1.25 0.75 0
1.375 0.75 0
1.25 0.875 0
1.375 0.875 0
1.375 0.75 0
1.5 0.75 0
1.375 0.875 0
1.5 0.875 0
1.375 0.875 0
1.5 0.875 0
1.375 1 0
1.5 1 0
1.25 0.875 0
1.375 0.875 0
1.25 1 0
1.375 1 0
1 0.75 0
1.125 0.75 0
1 0.875 0
1.125 0.875 0
1.125 0.75 0
1.25 0.75 0
1.125 0.875 0
1.25 0.875 0
1.125 0.875 0
1.25 0.875 0
1.125 1 0
1.25 1 0
1 0.875 0
1.125 0.875 0
1 1 0
1.125 1 0
2 0 0
2.125 0 0
2 0.125 0
2.125 0.125 0
2.125 0 0
2.25 0 0
2.125 0.125 0
2.25 0.125 0
2.125 0.125 0
2.25 0.125 0
2.125 0.25 0
2.25 0.25 0
2 0.125 0
2.125 0.125 0
2 0.25 0
2.125 0.25 0
2.25 0 0
2.375 0 0
2.25 0.125 0
2.375 0.125 0
2.375 0 0
2.5 0 0
2.375 0.125 0
2.5 0.125 0
2.375 0.125 0
2.5 0.125 0
2.375 0.25 0
2.5 0.25 0
2.25 0.125 0
2.375 0.125 0
2.25 0.25 0
2.375 0.25 0
2.25 0.25 0
2.375 0.25 0
2.25 0.375 0
2.375 0.375 0
2.375 0.25 0
2.5 0.25 0
2.375 0.375 0
2.5 0.375 0
2.375 0.375 0
2.5 0.375 0
2.375 0.5 0
2.5 0.5 0
2.25 0.375 0
2.375 0.375 0
2.25 0.5 0
2.375 0.5 0
2 0.25 0
2.125 0.25 0
2 0.375 0
2.125 0.375 0
2.125 0.25 0
2.25 0.25 0
2.125 0.375 0
2.25 0.375 0
2.125 0.375 0
2.25 0.375 0
2.125 0.5 0
2.25 0.5 0
2 0.375 0
2.125 0.375 0
2 0.5 0
2.125 0.5 0
2.5 0 0
2.625 0 0
2.5 0.125 0
2.625 0.125 0
2.625 0 0
2.75 0 0
2.625 0.125 0
2.75 0.125 0
2.625 0.125 0
2.75 0.125 0
2.625 0.25 0
2.75 0.25 0
2.5 0.125 0
2.625 0.125 0
2.5 0.25 0
2.625 0.25 0
2.75 0 0
2.875 0 0
2.75 0.125 0
2.875 0.125 0
2.875 0 0
3 0 0
2.875 0.125 0
3 0.125 0
2.875 0.125 0
3 0.125 0
2.875 0.25 0
3 0.25 0
2.75 0.125 0
2.875 0.125 0
2.75 0.25 0
2.875 0.25 0
2.75 0.25 0
2.875 0.25 0
2.75 0.375 0
2.875 0.375 0
2.875 0.25 0
3 0.25 0
2.875 0.375 0
3 0.375 0
2.875 0.375 0
3 0.375 0
2.875 0.5 0
3 0.5 0
2.75 0.375 0
2.875 0.375 0
2.75 0.5 0
2.875 0.5 0
2.5 0.25 0
2.625 0.25 0
2.5 0.375 0
2.625 0.375 0
2.625 0.25 0
2.75 0.25 0
2.625 0.375 0
2.75 0.375 0
2.625 0.375 0
2.75 0.375 0
2.625 0.5 0
2.75 0.5 0
2.5 0.375 0
2.625 0.375 0
2.5 0.5 0
2.625 0.5 0
2.5 0.5 0
2.625 0.5 0
2.5 0.625 0
2.625 0.625 0
2.625 0.5 0
2.75 0.5 0
2.625 0.625 0
2.75 0.625 0
2.625 0.625 0
2.75 0.625 0
2.625 0.75 0
2.75 0.75 0
2.5 0.625 0
2.625 0.625 0
2.5 0.75 0
2.625 0.75 0
2.75 0.5 0
2.875 0.5 0
2.75 0.625 0
2.875 0.625 0
2.875 0.5 0
3 0.5 0
2.875 0.625 0
3 0.625 0
2.875 0.625 0
3 0.625 0
2.875 0.75 0
3 0.75 0
2.75 0.625 0
2.875 0.625 0
2.75 0.75 0
2.875 0.75 0
2.75 0.75 0
2.875 0.75 0
2.75 0.875 0
2.875 0.875 0
2.875 0.75 0
3 0.75 0
2.875 0.875 0
3 0.875 0
2.875 0.875 0
3 0.875 0
2.875 1 0
3 1 0
2.75 0.875 0
2.875 0.875 0
2.75 1 0
2.875 1 0
2.5 0.75 0
2.625 0.75 0
2.5 0.875 0
2.625 0.875 0
2.625 0.75 0
2.75 0.75 0
2.625 0.875 0
2.75 0.875 0
2.625 0.875 0
2.75 0.875 0
2.625 1 0
2.75 1 0
2.5 0.875 0
2.625 0.875 0
2.5 1 0
2.625 1 0
2 0.5 0
2.125 0.5 0
2 0.625 0
2.125 0.625 0
2.125 0.5 0
2.25 0.5 0
2.125 0.625 0
2.25 0.625 0
2.125 0.625 0
2.25 0.625 0
2.125 0.75 0
2.25 0.75 0
2 0.625 0
2.125 0.625 0
2 0.75 0
2.125 0.75 0
2.25 0.5 0
2.375 0.5 0
2.25 0.625 0
2.375 0.625 0
2.375 0.5 0
2.5 0.5 0
2.375 0.625 0
2.5 0.625 0
2.375 0.625 0
2.5 0.625 0
2.375 0.75 0
2.5 0.75 0
2.25 0.625 0
2.375 0.625 0
2.25 0.75 0
2.375 0.75 0
2.25 0.75 0
2.375 0.75 0
2.25 0.875 0
2.375 0.875 0
2.375 0.75 0
2.5 0.75 0
2.375 0.875 0
2.5 0.875 0
2.375 0.875 0
2.5 0.875 0
2.375 1 0
2.5 1 0
2.25 0.875 0
2.375 0.875 0
2.25 1 0
2.375 1 0
2 0.75 0
2.125 0.75 0
2 0.875 0
2.125 0.875 0
2.125 0.75 0
2.25 0.75 0
2.125 0.875 0
2.25 0.875 0
2.125 0.875 0
2.25 0.875 0
2.125 1 0
2.25 1 0
2 0.875 0
2.125 0.875 0
2 1 0
2.125 1 0
3 0 0
3.125 0 0
3 0.125 0
3.125 0.125 0
3.125 0 0
3.25 0 0
3.125 0.125 0
3.25 0.125 0
3.125 0.125 0
3.25 0.125 0
3.125 0.25 0
3.25 0.25 0
3 0.125 0
3.125 0.125 0
3 0.25 0
3.125 0.25 0
3.25 0 0
3.375 0 0
3.25 0.125 0
3.375 0.125 0
3.375 0 0
3.5 0 0
3.375 0.125 0
3.5 0.125 0
3.375 0.125 0
3.5 0.125 0
3.375 0.25 0
3.5 0.25 0
3.25 0.125 0
3.375 0.125 0
3.25 0.25 0
3.375 0.25 0
3.25 0.25 0
3.375 0.25 0
3.25 0.375 0
3.375 0.375 0
3.375 0.25 0
3.5 0.25 0
3.375 0.375 0
3.5 0.375 0
3.375 0.375 0
3.5 0.375 0
3.375 0.5 0
3.5 0.5 0
3.25 0.375 0
3.375 0.375 0
3.25 0.5 0
[...]
<CellData Scalars="attribute">
<DataArray type="Int32" Name="attribute" format="ascii">
1
1
1
1
1
1
1
1
1
1
1
1
1
1
1
1
1
1
1
1
1
1
1
1
1
1
1
1
1
1
1
1
1
1
1
1
1
1
1
1
1
1
1
1
1
1
1
1
1
1
1
1
1
1
1
1
1
1
1
1
1
1
1
1
1
1
1
1
1
1
1
1
1
1
1
1
1
1
1
1
1
1
1
1
1
1
1
1
1
1
1
1
1
1
1
1
1
1
1
1
1
1
1
1
1
1
1
1
1
1
1
1
1
1
1
1
1
1
1
1
1
1
1
1
1
1
1
1
1
1
1
1
1
1
1
1
1
1
1
1
1
1
1
1
1
1
1
1
1
1
1
1
1
1
1
1
1
1
1
1
1
1
1
1
1
1
1
1
1
1
1
1
1
1
1
1
1
1
1
1
1
1
1
1
1
1
1
1
1
1
1
1
1
1
1
1
1
1
1
1
1
1
1
1
1
1
1
1
1
1
1
1
1
1
1
1
1
1
1
1
1
1
1
1
1
1
1
1
1
1
1
1
1
1
1
1
1
1
1
1
1
1
1
1
1
1
1
1
1
1
1
1
1
1
1
1
2
2
2
2
2
2
2
2
2
2
2
2
2
2
2
2
2
2
2
2
2
2
2
2
2
2
2
2
2
2
2
2
2
2
2
2
2
2
2
2
2
2
2
2
2
2
2
2
2
2
2
2
2
2
2
2
2
2
2
2
2
2
2
2
2
2
2
2
2
2
2
2
2
2
2
2
2
2
2
2
2
2
2
2
2
2
2
2
2
2
2
2
2
2
2
2
2
2
2
2
2
2
2
2
2
2
2
2
2
2
2
2
2
2
2
2
2
2
2
2
2
2
2
2
2
2
2
2
2
2
2
2
2
2
2
2
2
2
2
2
2
2
2
2
2
2
2
2
2
2
2
2
2
2
2
2
2
2
2
2
2
2
2
2
2
2
2
2
2
2
2
2
2
2
2
2
2
2
2
2
2
2
2
2
2
2
2
2
2
2
2
2
2
2
2
2
2
2
2
2
2
2
2
2
2
2
2
2
2
2
2
2
2
2
2
2
2
2
2
2
2
2
2
2
2
2
2
2
2
2
2
2
2
2
2
2
2
2
2
2
2
2
2
2
2
2
2
2
2
2
2
2
2
2
2
2
</DataArray>
</CellData>
<PointData >
<DataArray type="Float64" Name="Pressure" NumberOfComponents="1" format="ascii" >
-0.000275924
-2.9684e-07
-0.000451522
-4.91378e-07
-2.9684e-07
1.31716e-11
-4.91378e-07
2.28098e-11
-4.91378e-07
2.28098e-11
-3.29884e-07
1.54896e-11
-0.000451522
-4.91378e-07
-0.000301017
-3.29884e-07
1.31716e-11
-3.73454e-16
2.28098e-11
-6.66776e-16
-3.73454e-16
1.07799e-20
-6.66776e-16
1.99542e-20
-6.66776e-16
1.99542e-20
-4.64267e-16
1.42703e-20
2.28098e-11
-6.66776e-16
1.54896e-11
-4.64267e-16
1.54896e-11
-4.64267e-16
7.93783e-12
-2.37235e-16
-4.64267e-16
1.42703e-20
-2.37235e-16
7.29964e-21
-2.37235e-16
7.29964e-21
-7.85227e-18
2.31548e-22
7.93783e-12
-2.37235e-16
2.79813e-13
-7.85227e-18
-0.000301017
-3.29884e-07
-0.000150512
-1.67513e-07
-3.29884e-07
1.54896e-11
-1.67513e-07
7.93783e-12
-1.67513e-07
7.93783e-12
-3.71002e-09
2.79813e-13
-0.000150512
-1.67513e-07
-4.56525e-09
-3.71002e-09
1.07799e-20
-1.61692e-25
1.99542e-20
-3.10199e-25
-1.61692e-25
4.20936e-30
-3.10199e-25
8.12017e-30
-3.10199e-25
8.12017e-30
-2.29797e-25
6.10153e-30
1.99542e-20
-3.10199e-25
1.42703e-20
-2.29797e-25
4.20936e-30
-2.67422e-35
8.12017e-30
-5.68804e-35
-2.67422e-35
1.06826e-39
-5.68804e-35
2.09158e-39
-5.68804e-35
2.09158e-39
-4.59894e-35
1.61967e-39
8.12017e-30
-5.68804e-35
6.10153e-30
-4.59894e-35
6.10153e-30
-4.59894e-35
3.17208e-30
-2.4249e-35
-4.59894e-35
1.61967e-39
-2.4249e-35
8.60132e-40
-2.4249e-35
8.60132e-40
-6.99018e-37
2.18996e-41
3.17208e-30
-2.4249e-35
9.09784e-32
-6.99018e-37
1.42703e-20
-2.29797e-25
7.29964e-21
-1.1827e-25
-2.29797e-25
6.10153e-30
-1.1827e-25
3.17208e-30
-1.1827e-25
3.17208e-30
-3.61185e-27
9.09784e-32
7.29964e-21
-1.1827e-25
2.31548e-22
-3.61185e-27
2.31548e-22
-3.61185e-27
-6.93512e-21
1.1264e-25
-3.61185e-27
9.09784e-32
1.1264e-25
-3.03328e-30
1.1264e-25
-3.03328e-30
2.28973e-25
-6.08539e-30
-6.93512e-21
1.1264e-25
-1.42033e-20
2.28973e-25
9.09784e-32
-6.99018e-37
-3.03328e-30
2.31899e-35
-6.99018e-37
2.18996e-41
2.31899e-35
-8.27664e-40
2.31899e-35
-8.27664e-40
4.58653e-35
-1.61704e-39
-3.03328e-30
2.31899e-35
-6.08539e-30
4.58653e-35
-6.08539e-30
4.58653e-35
-8.24974e-30
5.77467e-35
4.58653e-35
-1.61704e-39
5.77467e-35
-2.12085e-39
5.77467e-35
-2.12085e-39
2.73258e-35
-1.08894e-39
-8.24974e-30
5.77467e-35
-4.3041e-30
2.73258e-35
-1.42033e-20
2.28973e-25
-2.03099e-20
3.15479e-25
2.28973e-25
-6.08539e-30
3.15479e-25
-8.24974e-30
3.15479e-25
-8.24974e-30
1.65617e-25
-4.3041e-30
-2.03099e-20
3.15479e-25
-1.10633e-20
1.65617e-25
-4.56525e-09
-3.71002e-09
0.000150505
1.61526e-07
-3.71002e-09
2.79813e-13
1.61526e-07
-7.48723e-12
1.61526e-07
-7.48723e-12
3.28194e-07
-1.53658e-11
0.000150505
1.61526e-07
0.000301015
3.28194e-07
2.79813e-13
-7.85227e-18
-7.48723e-12
2.24717e-16
-7.85227e-18
2.31548e-22
2.24717e-16
-6.93512e-21
2.24717e-16
-6.93512e-21
4.61355e-16
-1.42033e-20
-7.48723e-12
2.24717e-16
-1.53658e-11
4.61355e-16
-1.53658e-11
4.61355e-16
-2.32318e-11
6.79182e-16
4.61355e-16
-1.42033e-20
6.79182e-16
-2.03099e-20
6.79182e-16
-2.03099e-20
3.84016e-16
-1.10633e-20
-2.32318e-11
6.79182e-16
-1.36038e-11
3.84016e-16
0.000301015
3.28194e-07
0.000451528
4.96907e-07
3.28194e-07
-1.53658e-11
4.96907e-07
-2.32318e-11
4.96907e-07
-2.32318e-11
3.02698e-07
-1.36038e-11
0.000451528
4.96907e-07
0.000275931
3.02698e-07
1.06826e-39
1.15019e-45
2.09158e-39
4.19949e-46
1.15019e-45
2.11912e-49
4.19949e-46
4.11217e-49
4.19949e-46
4.11217e-49
-7.42291e-46
3.20927e-49
2.09158e-39
4.19949e-46
1.61967e-39
-7.42291e-46
2.11912e-49
1.40295e-54
4.11217e-49
2.37426e-54
1.40295e-54
3.50499e-59
2.37426e-54
6.67914e-59
2.37426e-54
6.67914e-59
1.63871e-54
5.18436e-59
4.11217e-49
2.37426e-54
3.20927e-49
1.63871e-54
3.20927e-49
1.63871e-54
1.72962e-49
8.54158e-55
1.63871e-54
5.18436e-59
8.54158e-55
2.81102e-59
8.54158e-55
2.81102e-59
1.43602e-56
5.34703e-61
1.72962e-49
8.54158e-55
3.83188e-51
1.43602e-56
1.61967e-39
-7.42291e-46
8.60132e-40
-5.04427e-46
-7.42291e-46
3.20927e-49
-5.04427e-46
1.72962e-49
-5.04427e-46
1.72962e-49
-2.85161e-47
3.83188e-51
8.60132e-40
-5.04427e-46
2.18996e-41
-2.85161e-47
3.50499e-59
3.24669e-64
6.67914e-59
5.81987e-64
3.24669e-64
4.74498e-69
5.81987e-64
8.91211e-69
5.81987e-64
8.91211e-69
4.27581e-64
6.87006e-69
6.67914e-59
5.81987e-64
5.18436e-59
4.27581e-64
4.74498e-69
4.60277e-74
8.91211e-69
8.40417e-74
4.60277e-74
5.11629e-79
8.40417e-74
9.53052e-79
8.40417e-74
9.53052e-79
6.31316e-74
7.3187e-79
8.91211e-69
8.40417e-74
6.87006e-69
6.31316e-74
6.87006e-69
6.31316e-74
3.73015e-69
3.39416e-74
6.31316e-74
7.3187e-79
3.39416e-74
3.97459e-79
3.39416e-74
3.97459e-79
4.88156e-76
5.56769e-81
3.73015e-69
3.39416e-74
6.07667e-71
4.88156e-76
5.18436e-59
4.27581e-64
2.81102e-59
2.27671e-64
4.27581e-64
6.87006e-69
2.27671e-64
3.73015e-69
2.27671e-64
3.73015e-69
3.65832e-66
6.07667e-71
2.81102e-59
2.27671e-64
5.34703e-61
3.65832e-66
5.34703e-61
3.65832e-66
-2.73406e-59
-2.22495e-64
3.65832e-66
6.07667e-71
-2.22495e-64
-3.6433e-69
-2.22495e-64
-3.6433e-69
-4.27721e-64
-6.86767e-69
-2.73406e-59
-2.22495e-64
-5.18109e-59
-4.27721e-64
6.07667e-71
4.88156e-76
-3.6433e-69
-3.32512e-74
4.88156e-76
5.56769e-81
-3.32512e-74
-3.89537e-79
-3.32512e-74
-3.89537e-79
-6.31414e-74
-7.31739e-79
-3.6433e-69
-3.32512e-74
-6.86767e-69
-6.31414e-74
-6.86767e-69
-6.31414e-74
-8.99411e-69
-8.47694e-74
-6.31414e-74
-7.31739e-79
-8.47694e-74
-9.60705e-79
-8.47694e-74
-9.60705e-79
-4.65462e-74
-5.17057e-79
-8.99411e-69
-8.47694e-74
-4.80307e-69
-4.65462e-74
-5.18109e-59
-4.27721e-64
-6.74968e-59
-5.8776e-64
-4.27721e-64
-6.86767e-69
-5.8776e-64
-8.99411e-69
-5.8776e-64
-8.99411e-69
-3.28833e-64
-4.80307e-69
-6.74968e-59
-5.8776e-64
-3.55478e-59
-3.28833e-64
2.18996e-41
-2.85161e-47
-8.27664e-40
4.59806e-46
-2.85161e-47
3.83188e-51
4.59806e-46
-1.67384e-49
4.59806e-46
-1.67384e-49
7.28059e-46
-3.20594e-49
-8.27664e-40
4.59806e-46
-1.61704e-39
7.28059e-46
3.83188e-51
1.43602e-56
-1.67384e-49
-8.33936e-55
1.43602e-56
5.34703e-61
-8.33936e-55
-2.73406e-59
-8.33936e-55
-2.73406e-59
-1.64023e-54
-5.18109e-59
-1.67384e-49
-8.33936e-55
-3.20594e-49
-1.64023e-54
-3.20594e-49
-1.64023e-54
-4.16217e-49
-2.40105e-54
-1.64023e-54
-5.18109e-59
-2.40105e-54
-6.74968e-59
-2.40105e-54
-6.74968e-59
-1.42307e-54
-3.55478e-59
-4.16217e-49
-2.40105e-54
-2.15425e-49
-1.42307e-54
-1.61704e-39
7.28059e-46
-2.12085e-39
-4.22266e-46
7.28059e-46
-3.20594e-49
-4.22266e-46
-4.16217e-49
-4.22266e-46
-4.16217e-49
-1.16157e-45
-2.15425e-49
-2.12085e-39
-4.22266e-46
-1.08894e-39
-1.16157e-45
5.11629e-79
4.68477e-84
9.53052e-79
8.61703e-84
4.68477e-84
4.36037e-89
8.61703e-84
8.08922e-89
8.61703e-84
8.08922e-89
6.54178e-84
6.20446e-89
9.53052e-79
8.61703e-84
7.3187e-79
6.54178e-84
4.36037e-89
3.63918e-94
8.08922e-89
6.71396e-94
3.63918e-94
2.95583e-99
6.71396e-94
5.47275e-99
6.71396e-94
5.47275e-99
5.1254e-94
4.19821e-99
8.08922e-89
6.71396e-94
6.20446e-89
5.1254e-94
6.20446e-89
5.1254e-94
3.37022e-89
2.77807e-94
5.1254e-94
4.19821e-99
2.77807e-94
2.28115e-99
2.77807e-94
2.28115e-99
3.08936e-96
2.39673e-101
3.37022e-89
2.77807e-94
4.08048e-91
3.08936e-96
7.3187e-79
6.54178e-84
3.97459e-79
3.53553e-84
6.54178e-84
6.20446e-89
3.53553e-84
3.37022e-89
3.53553e-84
3.37022e-89
4.48377e-86
4.08048e-91
3.97459e-79
3.53553e-84
5.56769e-81
4.48377e-86
2.95583e-99
2.2291e-104
5.47275e-99
4.11716e-104
2.2291e-104
1.61229e-109
4.11716e-104
2.98214e-109
4.11716e-104
2.98214e-109
3.15282e-104
2.28906e-109
5.47275e-99
4.11716e-104
4.19821e-99
3.15282e-104
1.61229e-109
1.09948e-114
2.98214e-109
2.03137e-114
1.09948e-114
7.16373e-120
2.03137e-114
1.32422e-119
2.03137e-114
1.32422e-119
1.55847e-114
1.01717e-119
2.98214e-109
2.03137e-114
2.28906e-109
1.55847e-114
2.28906e-109
1.55847e-114
1.24416e-109
8.46772e-115
1.55847e-114
1.01717e-119
8.46772e-115
5.52976e-120
8.46772e-115
5.52976e-120
7.20004e-117
4.40677e-122
1.24416e-109
8.46772e-115
1.13745e-111
7.20004e-117
4.19821e-99
3.15282e-104
2.28115e-99
1.71159e-104
3.15282e-104
2.28906e-109
1.71159e-104
1.24416e-109
1.71159e-104
1.24416e-109
1.66513e-106
1.13745e-111
2.28115e-99
1.71159e-104
2.39673e-101
1.66513e-106
2.39673e-101
1.66513e-106
-2.24719e-99
-1.68805e-104
1.66513e-106
1.13745e-111
-1.68805e-104
-1.22805e-109
-1.68805e-104
-1.22805e-109
-3.15286e-104
-2.289e-109
-2.24719e-99
-1.68805e-104
-4.19802e-99
-3.15286e-104
1.13745e-111
7.20004e-117
-1.22805e-109
-8.36589e-115
7.20004e-117
4.40677e-122
-8.36589e-115
-5.46738e-120
-8.36589e-115
-5.46738e-120
-1.55846e-114
-1.01715e-119
-1.22805e-109
-8.36589e-115
-2.289e-109
-1.55846e-114
-2.289e-109
-1.55846e-114
-2.99807e-109
-2.04152e-114
-1.55846e-114
-1.01715e-119
-2.04152e-114
-1.33039e-119
-2.04152e-114
-1.33039e-119
-1.10666e-114
-7.20744e-120
-2.99807e-109
-2.04152e-114
-1.62358e-109
-1.10666e-114
-4.19802e-99
-3.15286e-104
-5.50625e-99
-4.14076e-104
-3.15286e-104
-2.289e-109
-4.14076e-104
-2.99807e-109
-4.14076e-104
-2.99807e-109
-2.24581e-104
-1.62358e-109
-5.50625e-99
-4.14076e-104
-2.97958e-99
-2.24581e-104
5.56769e-81
4.48377e-86
-3.89537e-79
-3.47214e-84
4.48377e-86
4.08048e-91
-3.47214e-84
-3.31232e-89
-3.47214e-84
-3.31232e-89
-6.54229e-84
-6.20392e-89
-3.89537e-79
-3.47214e-84
-7.31739e-79
-6.54229e-84
4.08048e-91
3.08936e-96
-3.31232e-89
-2.73439e-94
3.08936e-96
2.39673e-101
-2.73439e-94
-2.24719e-99
-2.73439e-94
-2.24719e-99
-5.12559e-94
-4.19802e-99
-3.31232e-89
-2.73439e-94
-6.20392e-89
-5.12559e-94
-6.20392e-89
-5.12559e-94
-8.14594e-89
-6.75812e-94
-5.12559e-94
-4.19802e-99
-6.75812e-94
-5.50625e-99
-6.75812e-94
-5.50625e-99
-3.67047e-94
-2.97958e-99
-8.14594e-89
-6.75812e-94
-4.40059e-89
-3.67047e-94
-7.31739e-79
-6.54229e-84
-9.60705e-79
-8.68207e-84
-6.54229e-84
-6.20392e-89
-8.68207e-84
-8.14594e-89
-8.68207e-84
-8.14594e-89
-4.73091e-84
-4.40059e-89
-9.60705e-79
-8.68207e-84
-5.17057e-79
-4.73091e-84
7.16373e-120
4.43391e-125
1.32422e-119
8.19162e-125
4.43391e-125
2.62216e-130
8.19162e-125
4.845e-130
8.19162e-125
4.845e-130
6.292e-125
3.72393e-130
1.32422e-119
8.19162e-125
1.01717e-119
6.292e-125
2.62216e-130
1.47937e-135
4.845e-130
2.73259e-135
1.47937e-135
7.98488e-141
2.73259e-135
1.47486e-140
2.73259e-135
1.47486e-140
2.10056e-135
1.13418e-140
4.845e-130
2.73259e-135
3.72393e-130
2.10056e-135
3.72393e-130
2.10056e-135
2.02471e-130
1.14201e-135
2.10056e-135
1.13418e-140
1.14201e-135
6.1668e-141
1.14201e-135
6.1668e-141
7.41528e-138
3.7461e-143
2.02471e-130
1.14201e-135
1.40815e-132
7.41528e-138
1.01717e-119
6.292e-125
5.52976e-120
3.42013e-125
6.292e-125
3.72393e-130
3.42013e-125
2.02471e-130
3.42013e-125
2.02471e-130
2.54116e-127
1.40815e-132
5.52976e-120
3.42013e-125
4.40677e-122
2.54116e-127
7.98488e-141
4.12299e-146
1.47486e-140
7.61382e-146
4.12299e-146
2.03985e-151
7.61382e-146
3.76658e-151
7.61382e-146
3.76658e-151
5.85601e-146
2.89772e-151
1.47486e-140
7.61382e-146
1.13418e-140
5.85601e-146
2.03985e-151
9.67423e-157
3.76658e-151
1.78605e-156
9.67423e-157
4.40261e-162
1.78605e-156
8.12712e-162
1.78605e-156
8.12712e-162
1.37425e-156
6.2544e-162
3.76658e-151
1.78605e-156
2.89772e-151
1.37425e-156
2.89772e-151
1.37425e-156
1.57552e-151
7.47161e-157
1.37425e-156
6.2544e-162
7.47161e-157
3.40036e-162
7.47161e-157
3.40036e-162
3.70848e-159
1.57875e-164
1.57552e-151
7.47161e-157
8.36485e-154
3.70848e-159
1.13418e-140
5.85601e-146
6.1668e-141
3.18391e-146
5.85601e-146
2.89772e-151
3.18391e-146
1.57552e-151
3.18391e-146
1.57552e-151
1.80719e-148
8.36485e-154
6.1668e-141
3.18391e-146
3.7461e-143
1.80719e-148
3.7461e-143
1.80719e-148
-6.11375e-141
-3.15832e-146
1.80719e-148
8.36485e-154
-3.15832e-146
-1.56367e-151
-3.15832e-146
-1.56367e-151
-5.85586e-146
-2.89764e-151
-6.11375e-141
-3.15832e-146
-1.13415e-140
-5.85586e-146
8.36485e-154
3.70848e-159
-1.56367e-151
-7.41905e-157
3.70848e-159
1.57875e-164
-7.41905e-157
-3.37798e-162
-7.41905e-157
-3.37798e-162
-1.37421e-156
-6.2542e-162
-1.56367e-151
-7.41905e-157
-2.89764e-151
-1.37421e-156
-2.89764e-151
-1.37421e-156
-3.77822e-151
-1.7912e-156
-1.37421e-156
-6.2542e-162
-1.7912e-156
-8.14902e-162
-1.7912e-156
-8.14902e-162
-9.71073e-157
-4.41811e-162
-3.77822e-151
-1.7912e-156
-2.0481e-151
-9.71073e-157
-1.13415e-140
-5.85586e-146
-1.48009e-140
-7.63902e-146
-5.85586e-146
-2.89764e-151
-7.63902e-146
-3.77822e-151
-7.63902e-146
-3.77822e-151
-4.14084e-146
-2.0481e-151
-1.48009e-140
-7.63902e-146
-8.0219e-141
-4.14084e-146
4.40677e-122
2.54116e-127
-5.46738e-120
-3.38418e-125
2.54116e-127
1.40815e-132
-3.38418e-125
-2.00478e-130
-3.38418e-125
-2.00478e-130
-6.29192e-125
-3.72385e-130
-5.46738e-120
-3.38418e-125
-1.01715e-119
-6.29192e-125
1.40815e-132
7.41528e-138
-2.00478e-130
-1.13152e-135
7.41528e-138
3.7461e-143
-1.13152e-135
-6.11375e-141
-1.13152e-135
-6.11375e-141
-2.10052e-135
-1.13415e-140
-2.00478e-130
-1.13152e-135
-3.72385e-130
-2.10052e-135
-3.72385e-130
-2.10052e-135
-4.8647e-130
-2.74297e-135
-2.10052e-135
-1.13415e-140
-2.74297e-135
-1.48009e-140
-2.74297e-135
-1.48009e-140
-1.48671e-135
-8.0219e-141
-4.8647e-130
-2.74297e-135
-2.63611e-130
-1.48671e-135
-1.01715e-119
-6.29192e-125
-1.33039e-119
-8.2273e-125
-6.29192e-125
-3.72385e-130
-8.2273e-125
-4.8647e-130
-8.2273e-125
-4.8647e-130
-4.45917e-125
-2.63611e-130
-1.33039e-119
-8.2273e-125
-7.20744e-120
-4.45917e-125
4.40261e-162
1.9236e-167
8.12712e-162
3.55042e-167
1.9236e-167
8.07505e-173
3.55042e-167
1.49026e-172
3.55042e-167
1.49026e-172
2.73264e-167
1.14715e-172
8.12712e-162
3.55042e-167
6.2544e-162
2.73264e-167
8.07505e-173
3.25855e-178
1.49026e-172
6.01296e-178
3.25855e-178
1.2647e-183
6.01296e-178
2.33349e-183
6.01296e-178
2.33349e-183
4.62903e-178
1.79659e-183
1.49026e-172
6.01296e-178
1.14715e-172
4.62903e-178
1.14715e-172
4.62903e-178
6.23623e-173
2.51634e-178
4.62903e-178
1.79659e-183
2.51634e-178
9.76581e-184
2.51634e-178
9.76581e-184
9.56258e-181
3.47265e-186
6.23623e-173
2.51634e-178
2.53328e-175
9.56258e-181
6.2544e-162
2.73264e-167
3.40036e-162
1.4856e-167
2.73264e-167
1.14715e-172
1.4856e-167
6.23623e-173
1.4856e-167
6.23623e-173
6.45058e-170
2.53328e-175
3.40036e-162
1.4856e-167
1.57875e-164
6.45058e-170
1.2647e-183
4.72303e-189
2.33349e-183
8.71346e-189
4.72303e-189
1.69784e-194
8.71346e-189
3.13202e-194
8.71346e-189
3.13202e-194
6.70919e-189
2.41178e-194
2.33349e-183
8.71346e-189
1.79659e-183
6.70919e-189
1.69784e-194
5.87704e-200
3.13202e-194
1.08404e-199
5.87704e-200
1.95942e-205
1.08404e-199
3.61389e-205
1.08404e-199
3.61389e-205
8.34806e-200
2.78318e-205
3.13202e-194
1.08404e-199
2.41178e-194
8.34806e-200
2.41178e-194
8.34806e-200
1.31085e-194
4.53711e-200
8.34806e-200
2.78318e-205
4.53711e-200
1.51257e-205
4.53711e-200
1.51257e-205
1.32264e-202
4.12805e-208
1.31085e-194
4.53711e-200
4.08247e-197
1.32264e-202
1.79659e-183
6.70919e-189
9.76581e-184
3.64676e-189
6.70919e-189
2.41178e-194
3.64676e-189
1.31085e-194
3.64676e-189
1.31085e-194
1.21347e-191
4.08247e-197
9.76581e-184
3.64676e-189
3.47265e-186
1.21347e-191
3.47265e-186
1.21347e-191
-9.71651e-184
-3.62952e-189
1.21347e-191
4.08247e-197
-3.62952e-189
-1.30505e-194
-3.62952e-189
-1.30505e-194
-6.70892e-189
-2.41167e-194
-9.71651e-184
-3.62952e-189
-1.79652e-183
-6.70892e-189
4.08247e-197
1.32264e-202
-1.30505e-194
-4.5183e-200
1.32264e-202
4.12805e-208
-4.5183e-200
-1.50669e-205
-4.5183e-200
-1.50669e-205
-8.3477e-200
-2.78306e-205
-1.30505e-194
-4.5183e-200
-2.41167e-194
-8.3477e-200
-2.41167e-194
-8.3477e-200
-3.1376e-194
-1.08584e-199
-8.3477e-200
-2.78306e-205
-1.08584e-199
-3.6195e-205
-1.08584e-199
-3.6195e-205
-5.88982e-200
-1.96339e-205
-3.1376e-194
-1.08584e-199
-1.7018e-194
-5.88982e-200
-1.79652e-183
-6.70892e-189
-2.33826e-183
-8.73011e-189
-6.70892e-189
-2.41167e-194
-8.73011e-189
-3.1376e-194
-8.73011e-189
-3.1376e-194
-4.73481e-189
-1.7018e-194
-2.33826e-183
-8.73011e-189
-1.26808e-183
-4.73481e-189
1.57875e-164
6.45058e-170
-3.37798e-162
-1.47645e-167
6.45058e-170
2.53328e-175
-1.47645e-167
-6.20029e-173
-1.47645e-167
-6.20029e-173
-2.73255e-167
-1.14711e-172
-3.37798e-162
-1.47645e-167
-6.2542e-162
-2.73255e-167
2.53328e-175
9.56258e-181
-6.20029e-173
-2.50277e-178
9.56258e-181
3.47265e-186
-2.50277e-178
-9.71651e-184
-2.50277e-178
-9.71651e-184
-4.62886e-178
-1.79652e-183
-6.20029e-173
-2.50277e-178
-1.14711e-172
-4.62886e-178
-1.14711e-172
-4.62886e-178
-1.49376e-172
-6.02615e-178
-4.62886e-178
-1.79652e-183
-6.02615e-178
-2.33826e-183
-6.02615e-178
-2.33826e-183
-3.26788e-178
-1.26808e-183
-1.49376e-172
-6.02615e-178
-8.09983e-173
-3.26788e-178
-6.2542e-162
-2.73255e-167
-8.14902e-162
-3.55936e-167
-2.73255e-167
-1.14711e-172
-3.55936e-167
-1.49376e-172
-3.55936e-167
-1.49376e-172
-1.92992e-167
-8.09983e-173
-8.14902e-162
-3.55936e-167
-4.41811e-162
-1.92992e-167
1.95942e-205
6.29356e-211
3.61389e-205
1.16066e-210
6.29356e-211
1.94776e-216
1.16066e-210
3.59178e-216
1.16066e-210
3.59178e-216
8.93916e-211
2.76645e-216
3.61389e-205
1.16066e-210
2.78318e-205
8.93916e-211
1.94776e-216
5.80877e-222
3.59178e-216
1.07109e-221
5.80877e-222
1.6694e-227
1.07109e-221
3.07802e-227
1.07109e-221
3.07802e-227
8.25008e-222
2.37094e-227
3.59178e-216
1.07109e-221
2.76645e-216
8.25008e-222
2.76645e-216
8.25008e-222
1.50333e-216
4.48302e-222
8.25008e-222
2.37094e-227
4.48302e-222
1.28829e-227
4.48302e-222
1.28829e-227
1.00483e-224
2.70512e-230
1.50333e-216
4.48302e-222
3.59757e-219
1.00483e-224
2.78318e-205
8.93916e-211
1.51257e-205
4.8579e-211
8.93916e-211
2.76645e-216
4.8579e-211
1.50333e-216
4.8579e-211
1.50333e-216
1.24138e-213
3.59757e-219
1.51257e-205
4.8579e-211
4.12805e-208
1.24138e-213
1.6694e-227
4.62322e-233
3.07802e-227
8.52369e-233
4.62322e-233
1.23364e-238
8.52369e-233
2.27429e-238
8.52369e-233
2.27429e-238
6.56587e-233
1.75196e-238
3.07802e-227
8.52369e-233
2.37094e-227
6.56587e-233
1.23364e-238
3.17111e-244
2.27429e-238
5.84576e-244
3.17111e-244
7.85025e-250
5.84576e-244
1.44707e-249
5.84576e-244
1.44707e-249
4.50333e-244
1.11479e-249
2.27429e-238
5.84576e-244
1.75196e-238
4.50333e-244
1.75196e-238
4.50333e-244
9.51884e-239
2.44668e-244
4.50333e-244
1.11479e-249
2.44668e-244
6.05651e-250
2.44668e-244
6.05651e-250
4.22861e-247
9.81399e-253
9.51884e-239
2.44668e-244
1.75509e-241
4.22861e-247
2.37094e-227
6.56587e-233
1.28829e-227
3.56754e-233
6.56587e-233
1.75196e-238
3.56754e-233
9.51884e-239
3.56754e-233
9.51884e-239
7.0189e-236
1.75509e-241
1.28829e-227
3.56754e-233
2.70512e-230
7.0189e-236
2.70512e-230
7.0189e-236
-1.28443e-227
-3.55751e-233
7.0189e-236
1.75509e-241
-3.55751e-233
-9.49376e-239
-3.55751e-233
-9.49376e-239
-6.56554e-233
-1.75187e-238
-1.28443e-227
-3.55751e-233
-2.37082e-227
-6.56554e-233
1.75509e-241
4.22861e-247
-9.49376e-239
-2.44063e-244
4.22861e-247
9.81399e-253
-2.44063e-244
-6.04245e-250
-2.44063e-244
-6.04245e-250
-4.5031e-244
-1.11473e-249
-9.49376e-239
-2.44063e-244
-1.75187e-238
-4.5031e-244
-1.75187e-238
-4.5031e-244
-2.27662e-238
-5.85135e-244
-4.5031e-244
-1.11473e-249
-5.85135e-244
-1.44836e-249
-5.85135e-244
-1.44836e-249
-3.17506e-244
-7.85937e-250
-2.27662e-238
-5.85135e-244
-1.23529e-238