<VTKFile type="UnstructuredGrid" version="0.1" byte_order="LittleEndian">
<UnstructuredGrid>
<Piece NumberOfPoints="2048" NumberOfCells="512">
<Points>
<DataArray type="Float64" NumberOfComponents="3" format="ascii">
0 0 0
0.125 0 0
0 0.125 0
0.125 0.125 0
0.125 0 0
0.25 0 0
0.125 0.125 0
0.25 0.125 0
0.125 0.125 0
0.25 0.125 0
0.125 0.25 0
0.25 0.25 0
0 0.125 0
0.125 0.125 0
0 0.25 0
0.125 0.25 0
0.25 0 0
0.375 0 0
0.25 0.125 0
0.375 0.125 0
0.375 0 0
0.5 0 0
0.375 0.125 0
0.5 0.125 0
0.375 0.125 0
0.5 0.125 0
0.375 0.25 0
0.5 0.25 0
0.25 0.125 0
0.375 0.125 0
0.25 0.25 0
0.375 0.25 0
0.25 0.25 0
0.375 0.25 0
0.25 0.375 0
0.375 0.375 0
0.375 0.25 0
0.5 0.25 0
0.375 0.375 0
0.5 0.375 0
0.375 0.375 0
0.5 0.375 0
0.375 0.5 0
0.5 0.5 0
0.25 0.375 0
0.375 0.375 0
0.25 0.5 0
0.375 0.5 0
0 0.25 0
0.125 0.25 0
0 0.375 0
0.125 0.375 0
0.125 0.25 0
0.25 0.25 0
0.125 0.375 0
0.25 0.375 0
0.125 0.375 0
0.25 0.375 0
0.125 0.5 0
0.25 0.5 0
0 0.375 0
0.125 0.375 0
0 0.5 0
0.125 0.5 0
0.5 0 0
0.625 0 0
0.5 0.125 0
0.625 0.125 0
0.625 0 0
0.75 0 0
0.625 0.125 0
0.75 0.125 0
0.625 0.125 0
0.75 0.125 0
0.625 0.25 0
0.75 0.25 0
0.5 0.125 0
0.625 0.125 0
0.5 0.25 0
0.625 0.25 0
0.75 0 0
0.875 0 0
0.75 0.125 0
0.875 0.125 0
0.875 0 0
1 0 0
0.875 0.125 0
1 0.125 0
0.875 0.125 0
1 0.125 0
0.875 0.25 0
1 0.25 0
0.75 0.125 0
0.875 0.125 0
0.75 0.25 0
0.875 0.25 0
0.75 0.25 0
0.875 0.25 0
0.75 0.375 0
0.875 0.375 0
0.875 0.25 0
1 0.25 0
0.875 0.375 0
1 0.375 0
0.875 0.375 0
1 0.375 0
0.875 0.5 0
1 0.5 0
0.75 0.375 0
0.875 0.375 0
0.75 0.5 0
0.875 0.5 0
0.5 0.25 0
0.625 0.25 0
0.5 0.375 0
0.625 0.375 0
0.625 0.25 0
0.75 0.25 0
0.625 0.375 0
0.75 0.375 0
0.625 0.375 0
0.75 0.375 0
0.625 0.5 0
0.75 0.5 0
0.5 0.375 0
0.625 0.375 0
0.5 0.5 0
0.625 0.5 0
0.5 0.5 0
0.625 0.5 0
0.5 0.625 0
0.625 0.625 0
0.625 0.5 0
0.75 0.5 0
0.625 0.625 0
0.75 0.625 0
0.625 0.625 0
0.75 0.625 0
0.625 0.75 0
0.75 0.75 0
0.5 0.625 0
0.625 0.625 0
0.5 0.75 0
0.625 0.75 0
0.75 0.5 0
0.875 0.5 0
0.75 0.625 0
0.875 0.625 0
0.875 0.5 0
1 0.5 0
0.875 0.625 0
1 0.625 0
0.875 0.625 0
1 0.625 0
0.875 0.75 0
1 0.75 0
0.75 0.625 0
0.875 0.625 0
0.75 0.75 0
0.875 0.75 0
0.75 0.75 0
0.875 0.75 0
0.75 0.875 0
0.875 0.875 0
0.875 0.75 0
1 0.75 0
0.875 0.875 0
1 0.875 0
0.875 0.875 0
1 0.875 0
0.875 1 0
1 1 0
0.75 0.875 0
0.875 0.875 0
0.75 1 0
0.875 1 0
0.5 0.75 0
0.625 0.75 0
0.5 0.875 0
0.625 0.875 0
0.625 0.75 0
0.75 0.75 0
0.625 0.875 0
0.75 0.875 0
0.625 0.875 0
0.75 0.875 0
0.625 1 0
0.75 1 0
0.5 0.875 0
0.625 0.875 0
0.5 1 0
0.625 1 0
0 0.5 0
0.125 0.5 0
0 0.625 0
0.125 0.625 0
0.125 0.5 0
0.25 0.5 0
0.125 0.625 0
0.25 0.625 0
0.125 0.625 0
0.25 0.625 0
0.125 0.75 0
0.25 0.75 0
0 0.625 0
0.125 0.625 0
0 0.75 0
0.125 0.75 0
0.25 0.5 0
0.375 0.5 0
0.25 0.625 0
0.375 0.625 0
0.375 0.5 0
0.5 0.5 0
0.375 0.625 0
0.5 0.625 0
0.375 0.625 0
0.5 0.625 0
0.375 0.75 0
0.5 0.75 0
0.25 0.625 0
0.375 0.625 0
0.25 0.75 0
0.375 0.75 0
0.25 0.75 0
0.375 0.75 0
0.25 0.875 0
0.375 0.875 0
0.375 0.75 0
0.5 0.75 0
0.375 0.875 0
0.5 0.875 0
0.375 0.875 0
0.5 0.875 0
0.375 1 0
0.5 1 0
0.25 0.875 0
0.375 0.875 0
0.25 1 0
0.375 1 0
0 0.75 0
0.125 0.75 0
0 0.875 0
0.125 0.875 0
0.125 0.75 0
0.25 0.75 0
0.125 0.875 0
0.25 0.875 0
0.125 0.875 0
0.25 0.875 0
0.125 1 0
0.25 1 0
0 0.875 0
0.125 0.875 0
0 1 0
0.125 1 0
1 0 0
1.125 0 0
1 0.125 0
1.125 0.125 0
1.125 0 0
1.25 0 0
1.125 0.125 0
1.25 0.125 0
1.125 0.125 0
1.25 0.125 0
1.125 0.25 0
1.25 0.25 0
1 0.125 0
1.125 0.125 0
1 0.25 0
1.125 0.25 0
1.25 0 0
1.375 0 0
1.25 0.125 0
1.375 0.125 0
1.375 0 0
1.5 0 0
1.375 0.125 0
1.5 0.125 0
1.375 0.125 0
1.5 0.125 0
1.375 0.25 0
1.5 0.25 0
1.25 0.125 0
1.375 0.125 0
1.25 0.25 0
1.375 0.25 0
1.25 0.25 0
1.375 0.25 0
1.25 0.375 0
1.375 0.375 0
1.375 0.25 0
1.5 0.25 0
1.375 0.375 0
1.5 0.375 0
1.375 0.375 0
1.5 0.375 0
1.375 0.5 0
1.5 0.5 0
1.25 0.375 0
1.375 0.375 0
1.25 0.5 0
1.375 0.5 0
1 0.25 0
1.125 0.25 0
1 0.375 0
1.125 0.375 0
1.125 0.25 0
1.25 0.25 0
1.125 0.375 0
1.25 0.375 0
1.125 0.375 0
1.25 0.375 0
1.125 0.5 0
1.25 0.5 0
1 0.375 0
1.125 0.375 0
1 0.5 0
1.125 0.5 0
1.5 0 0
1.625 0 0
1.5 0.125 0
1.625 0.125 0
1.625 0 0
1.75 0 0
1.625 0.125 0
1.75 0.125 0
1.625 0.125 0
1.75 0.125 0
1.625 0.25 0
1.75 0.25 0
1.5 0.125 0
1.625 0.125 0
1.5 0.25 0
1.625 0.25 0
1.75 0 0
1.875 0 0
1.75 0.125 0
1.875 0.125 0
1.875 0 0
2 0 0
1.875 0.125 0
2 0.125 0
1.875 0.125 0
2 0.125 0
1.875 0.25 0
2 0.25 0
1.75 0.125 0
1.875 0.125 0
1.75 0.25 0
1.875 0.25 0
1.75 0.25 0
1.875 0.25 0
1.75 0.375 0
1.875 0.375 0
1.875 0.25 0
2 0.25 0
1.875 0.375 0
2 0.375 0
1.875 0.375 0
2 0.375 0
1.875 0.5 0
2 0.5 0
1.75 0.375 0
1.875 0.375 0
1.75 0.5 0
1.875 0.5 0
1.5 0.25 0
1.625 0.25 0
1.5 0.375 0
1.625 0.375 0
1.625 0.25 0
1.75 0.25 0
1.625 0.375 0
1.75 0.375 0
1.625 0.375 0
1.75 0.375 0
1.625 0.5 0
1.75 0.5 0
1.5 0.375 0
1.625 0.375 0
1.5 0.5 0
1.625 0.5 0
1.5 0.5 0
1.625 0.5 0
1.5 0.625 0
1.625 0.625 0
1.625 0.5 0
1.75 0.5 0
1.625 0.625 0
1.75 0.625 0
1.625 0.625 0
1.75 0.625 0
1.625 0.75 0
1.75 0.75 0
1.5 0.625 0
1.625 0.625 0
1.5 0.75 0
1.625 0.75 0
1.75 0.5 0
1.875 0.5 0
1.75 0.625 0
1.875 0.625 0
1.875 0.5 0
2 0.5 0
1.875 0.625 0
2 0.625 0
1.875 0.625 0
2 0.625 0
1.875 0.75 0
2 0.75 0
1.75 0.625 0
1.875 0.625 0
1.75 0.75 0
1.875 0.75 0
1.75 0.75 0
1.875 0.75 0
1.75 0.875 0
1.875 0.875 0
1.875 0.75 0
2 0.75 0
1.875 0.875 0
2 0.875 0
1.875 0.875 0
2 0.875 0
1.875 1 0
2 1 0
1.75 0.875 0
1.875 0.875 0
1.75 1 0
1.875 1 0
1.5 0.75 0
1.625 0.75 0
1.5 0.875 0
1.625 0.875 0
1.625 0.75 0
1.75 0.75 0
1.625 0.875 0
1.75 0.875 0
1.625 0.875 0
1.75 0.875 0
1.625 1 0
1.75 1 0
1.5 0.875 0
1.625 0.875 0
1.5 1 0
1.625 1 0
1 0.5 0
1.125 0.5 0
1 0.625 0
1.125 0.625 0
1.125 0.5 0
1.25 0.5 0
1.125 0.625 0
1.25 0.625 0
1.125 0.625 0
1.25 0.625 0
1.125 0.75 0
1.25 0.75 0
1 0.625 0
1.125 0.625 0
1 0.75 0
1.125 0.75 0
1.25 0.5 0
1.375 0.5 0
1.25 0.625 0
1.375 0.625 0
1.375 0.5 0
1.5 0.5 0
1.375 0.625 0
1.5 0.625 0
1.375 0.625 0
1.5 0.625 0
1.375 0.75 0
1.5 0.75 0
1.25 0.625 0
1.375 0.625 0
1.25 0.75 0
1.375 0.75 0
1.25 0.75 0
1.375 0.75 0
1.25 0.875 0
1.375 0.875 0
1.375 0.75 0
1.5 0.75 0
1.375 0.875 0
1.5 0.875 0
1.375 0.875 0
1.5 0.875 0
1.375 1 0
1.5 1 0
1.25 0.875 0
1.375 0.875 0
1.25 1 0
1.375 1 0
1 0.75 0
1.125 0.75 0
1 0.875 0
1.125 0.875 0
1.125 0.75 0
1.25 0.75 0
1.125 0.875 0
1.25 0.875 0
1.125 0.875 0
1.25 0.875 0
1.125 1 0
1.25 1 0
1 0.875 0
1.125 0.875 0
1 1 0
1.125 1 0
2 0 0
2.125 0 0
2 0.125 0
2.125 0.125 0
2.125 0 0
2.25 0 0
2.125 0.125 0
2.25 0.125 0
2.125 0.125 0
2.25 0.125 0
2.125 0.25 0
2.25 0.25 0
2 0.125 0
2.125 0.125 0
2 0.25 0
2.125 0.25 0
2.25 0 0
2.375 0 0
2.25 0.125 0
2.375 0.125 0
2.375 0 0
2.5 0 0
2.375 0.125 0
2.5 0.125 0
2.375 0.125 0
2.5 0.125 0
2.375 0.25 0
2.5 0.25 0
2.25 0.125 0
2.375 0.125 0
2.25 0.25 0
2.375 0.25 0
2.25 0.25 0
2.375 0.25 0
2.25 0.375 0
2.375 0.375 0
2.375 0.25 0
2.5 0.25 0
2.375 0.375 0
2.5 0.375 0
2.375 0.375 0
2.5 0.375 0
2.375 0.5 0
2.5 0.5 0
2.25 0.375 0
2.375 0.375 0
2.25 0.5 0
2.375 0.5 0
2 0.25 0
2.125 0.25 0
2 0.375 0
2.125 0.375 0
2.125 0.25 0
2.25 0.25 0
2.125 0.375 0
2.25 0.375 0
2.125 0.375 0
2.25 0.375 0
2.125 0.5 0
2.25 0.5 0
2 0.375 0
2.125 0.375 0
2 0.5 0
2.125 0.5 0
2.5 0 0
2.625 0 0
2.5 0.125 0
2.625 0.125 0
2.625 0 0
2.75 0 0
2.625 0.125 0
2.75 0.125 0
2.625 0.125 0
2.75 0.125 0
2.625 0.25 0
2.75 0.25 0
2.5 0.125 0
2.625 0.125 0
2.5 0.25 0
2.625 0.25 0
2.75 0 0
2.875 0 0
2.75 0.125 0
2.875 0.125 0
2.875 0 0
3 0 0
2.875 0.125 0
3 0.125 0
2.875 0.125 0
3 0.125 0
2.875 0.25 0
3 0.25 0
2.75 0.125 0
2.875 0.125 0
2.75 0.25 0
2.875 0.25 0
2.75 0.25 0
2.875 0.25 0
2.75 0.375 0
2.875 0.375 0
2.875 0.25 0
3 0.25 0
2.875 0.375 0
3 0.375 0
2.875 0.375 0
3 0.375 0
2.875 0.5 0
3 0.5 0
2.75 0.375 0
2.875 0.375 0
2.75 0.5 0
2.875 0.5 0
2.5 0.25 0
2.625 0.25 0
2.5 0.375 0
2.625 0.375 0
2.625 0.25 0
2.75 0.25 0
2.625 0.375 0
2.75 0.375 0
2.625 0.375 0
2.75 0.375 0
2.625 0.5 0
2.75 0.5 0
2.5 0.375 0
2.625 0.375 0
2.5 0.5 0
2.625 0.5 0
2.5 0.5 0
2.625 0.5 0
2.5 0.625 0
2.625 0.625 0
2.625 0.5 0
2.75 0.5 0
2.625 0.625 0
2.75 0.625 0
2.625 0.625 0
2.75 0.625 0
2.625 0.75 0
2.75 0.75 0
2.5 0.625 0
2.625 0.625 0
2.5 0.75 0
2.625 0.75 0
2.75 0.5 0
2.875 0.5 0
2.75 0.625 0
2.875 0.625 0
2.875 0.5 0
3 0.5 0
2.875 0.625 0
3 0.625 0
2.875 0.625 0
3 0.625 0
2.875 0.75 0
3 0.75 0
2.75 0.625 0
2.875 0.625 0
2.75 0.75 0
2.875 0.75 0
2.75 0.75 0
2.875 0.75 0
2.75 0.875 0
2.875 0.875 0
2.875 0.75 0
3 0.75 0
2.875 0.875 0
3 0.875 0
2.875 0.875 0
3 0.875 0
2.875 1 0
3 1 0
2.75 0.875 0
2.875 0.875 0
2.75 1 0
2.875 1 0
2.5 0.75 0
2.625 0.75 0
2.5 0.875 0
2.625 0.875 0
2.625 0.75 0
2.75 0.75 0
2.625 0.875 0
2.75 0.875 0
2.625 0.875 0
2.75 0.875 0
2.625 1 0
2.75 1 0
2.5 0.875 0
2.625 0.875 0
2.5 1 0
2.625 1 0
2 0.5 0
2.125 0.5 0
2 0.625 0
2.125 0.625 0
2.125 0.5 0
2.25 0.5 0
2.125 0.625 0
2.25 0.625 0
2.125 0.625 0
2.25 0.625 0
2.125 0.75 0
2.25 0.75 0
2 0.625 0
2.125 0.625 0
2 0.75 0
2.125 0.75 0
2.25 0.5 0
2.375 0.5 0
2.25 0.625 0
2.375 0.625 0
2.375 0.5 0
2.5 0.5 0
2.375 0.625 0
2.5 0.625 0
2.375 0.625 0
2.5 0.625 0
2.375 0.75 0
2.5 0.75 0
2.25 0.625 0
2.375 0.625 0
2.25 0.75 0
2.375 0.75 0
2.25 0.75 0
2.375 0.75 0
2.25 0.875 0
2.375 0.875 0
2.375 0.75 0
2.5 0.75 0
2.375 0.875 0
2.5 0.875 0
2.375 0.875 0
2.5 0.875 0
2.375 1 0
2.5 1 0
2.25 0.875 0
2.375 0.875 0
2.25 1 0
2.375 1 0
2 0.75 0
2.125 0.75 0
2 0.875 0
2.125 0.875 0
2.125 0.75 0
2.25 0.75 0
2.125 0.875 0
2.25 0.875 0
2.125 0.875 0
2.25 0.875 0
2.125 1 0
2.25 1 0
2 0.875 0
2.125 0.875 0
2 1 0
2.125 1 0
3 0 0
3.125 0 0
3 0.125 0
3.125 0.125 0
3.125 0 0
3.25 0 0
3.125 0.125 0
3.25 0.125 0
3.125 0.125 0
3.25 0.125 0
3.125 0.25 0
3.25 0.25 0
3 0.125 0
3.125 0.125 0
3 0.25 0
3.125 0.25 0
3.25 0 0
3.375 0 0
3.25 0.125 0
3.375 0.125 0
3.375 0 0
3.5 0 0
3.375 0.125 0
3.5 0.125 0
3.375 0.125 0
3.5 0.125 0
3.375 0.25 0
3.5 0.25 0
3.25 0.125 0
3.375 0.125 0
3.25 0.25 0
3.375 0.25 0
3.25 0.25 0
3.375 0.25 0
3.25 0.375 0
3.375 0.375 0
3.375 0.25 0
3.5 0.25 0
3.375 0.375 0
3.5 0.375 0
3.375 0.375 0
3.5 0.375 0
3.375 0.5 0
3.5 0.5 0
3.25 0.375 0
3.375 0.375 0
3.25 0.5 0
[...]
<CellData Scalars="attribute">
<DataArray type="Int32" Name="attribute" format="ascii">
1
1
1
1
1
1
1
1
1
1
1
1
1
1
1
1
1
1
1
1
1
1
1
1
1
1
1
1
1
1
1
1
1
1
1
1
1
1
1
1
1
1
1
1
1
1
1
1
1
1
1
1
1
1
1
1
1
1
1
1
1
1
1
1
1
1
1
1
1
1
1
1
1
1
1
1
1
1
1
1
1
1
1
1
1
1
1
1
1
1
1
1
1
1
1
1
1
1
1
1
1
1
1
1
1
1
1
1
1
1
1
1
1
1
1
1
1
1
1
1
1
1
1
1
1
1
1
1
1
1
1
1
1
1
1
1
1
1
1
1
1
1
1
1
1
1
1
1
1
1
1
1
1
1
1
1
1
1
1
1
1
1
1
1
1
1
1
1
1
1
1
1
1
1
1
1
1
1
1
1
1
1
1
1
1
1
1
1
1
1
1
1
1
1
1
1
1
1
1
1
1
1
1
1
1
1
1
1
1
1
1
1
1
1
1
1
1
1
1
1
1
1
1
1
1
1
1
1
1
1
1
1
1
1
1
1
1
1
1
1
1
1
1
1
1
1
1
1
1
1
1
1
1
1
1
1
2
2
2
2
2
2
2
2
2
2
2
2
2
2
2
2
2
2
2
2
2
2
2
2
2
2
2
2
2
2
2
2
2
2
2
2
2
2
2
2
2
2
2
2
2
2
2
2
2
2
2
2
2
2
2
2
2
2
2
2
2
2
2
2
2
2
2
2
2
2
2
2
2
2
2
2
2
2
2
2
2
2
2
2
2
2
2
2
2
2
2
2
2
2
2
2
2
2
2
2
2
2
2
2
2
2
2
2
2
2
2
2
2
2
2
2
2
2
2
2
2
2
2
2
2
2
2
2
2
2
2
2
2
2
2
2
2
2
2
2
2
2
2
2
2
2
2
2
2
2
2
2
2
2
2
2
2
2
2
2
2
2
2
2
2
2
2
2
2
2
2
2
2
2
2
2
2
2
2
2
2
2
2
2
2
2
2
2
2
2
2
2
2
2
2
2
2
2
2
2
2
2
2
2
2
2
2
2
2
2
2
2
2
2
2
2
2
2
2
2
2
2
2
2
2
2
2
2
2
2
2
2
2
2
2
2
2
2
2
2
2
2
2
2
2
2
2
2
2
2
2
2
2
2
2
2
</DataArray>
</CellData>
<PointData >
<DataArray type="Float64" Name="Pressure" NumberOfComponents="1" format="ascii" >
-9.47514e-05
-4.63733e-08
-0.000155049
-7.67637e-08
-4.63733e-08
9.7325e-13
-7.67637e-08
1.68536e-12
-7.67637e-08
1.68536e-12
-5.15347e-08
1.14448e-12
-0.000155049
-7.67637e-08
-0.000103367
-5.15347e-08
9.7325e-13
-1.31711e-17
1.68536e-12
-2.35145e-17
-1.31711e-17
1.8155e-22
-2.35145e-17
3.36027e-22
-2.35145e-17
3.36027e-22
-1.63722e-17
2.40297e-22
1.68536e-12
-2.35145e-17
1.14448e-12
-1.63722e-17
1.14448e-12
-1.63722e-17
5.86493e-13
-8.3659e-18
-1.63722e-17
2.40297e-22
-8.3659e-18
1.22917e-22
-8.3659e-18
1.22917e-22
-2.76783e-19
3.89784e-24
5.86493e-13
-8.3659e-18
2.0661e-14
-2.76783e-19
-0.000103367
-5.15347e-08
-5.16838e-05
-2.6169e-08
-5.15347e-08
1.14448e-12
-2.6169e-08
5.86493e-13
-2.6169e-08
5.86493e-13
-5.7953e-10
2.0661e-14
-5.16838e-05
-2.6169e-08
-7.132e-10
-5.7953e-10
1.8155e-22
-1.2974e-27
3.36027e-22
-2.48859e-27
-1.2974e-27
1.59894e-32
-2.48859e-27
3.08418e-32
-2.48859e-27
3.08418e-32
-1.84337e-27
2.31732e-32
3.36027e-22
-2.48859e-27
2.40297e-22
-1.84337e-27
1.59894e-32
-4.79348e-38
3.08418e-32
-1.01907e-37
-4.79348e-38
8.92536e-43
-1.01907e-37
1.74746e-42
-1.01907e-37
1.74746e-42
-8.23698e-38
1.35315e-42
3.08418e-32
-1.01907e-37
2.31732e-32
-8.23698e-38
2.31732e-32
-8.23698e-38
1.20471e-32
-4.34289e-38
-8.23698e-38
1.35315e-42
-4.34289e-38
7.18582e-43
-4.34289e-38
7.18582e-43
-1.25134e-39
1.82947e-44
1.20471e-32
-4.34289e-38
3.45468e-34
-1.25134e-39
2.40297e-22
-1.84337e-27
1.22917e-22
-9.48708e-28
-1.84337e-27
2.31732e-32
-9.48708e-28
1.20471e-32
-9.48708e-28
1.20471e-32
-2.89629e-29
3.45468e-34
1.22917e-22
-9.48708e-28
3.89784e-24
-2.89629e-29
3.89784e-24
-2.89629e-29
-1.16781e-22
9.03565e-28
-2.89629e-29
3.45468e-34
9.03565e-28
-1.15201e-32
9.03565e-28
-1.15201e-32
1.83676e-27
-2.31119e-32
-1.16781e-22
9.03565e-28
-2.39168e-22
1.83676e-27
3.45468e-34
-1.25134e-39
-1.15201e-32
4.1533e-38
-1.25134e-39
1.82947e-44
4.1533e-38
-6.91458e-43
4.1533e-38
-6.91458e-43
8.21477e-38
-1.35096e-42
-1.15201e-32
4.1533e-38
-2.31119e-32
8.21477e-38
-2.31119e-32
8.21477e-38
-3.13339e-32
1.03459e-37
8.21477e-38
-1.35096e-42
1.03459e-37
-1.77191e-42
1.03459e-37
-1.77191e-42
4.89805e-38
-9.09812e-43
-3.13339e-32
1.03459e-37
-1.63492e-32
4.89805e-38
-2.39168e-22
1.83676e-27
-3.42014e-22
2.53094e-27
1.83676e-27
-2.31119e-32
2.53094e-27
-3.13339e-32
2.53094e-27
-3.13339e-32
1.32887e-27
-1.63492e-32
-3.42014e-22
2.53094e-27
-1.86322e-22
1.32887e-27
-7.132e-10
-5.7953e-10
5.16827e-05
2.52337e-08
-5.7953e-10
2.0661e-14
2.52337e-08
-5.53222e-13
2.52337e-08
-5.53222e-13
5.12707e-08
-1.13534e-12
5.16827e-05
2.52337e-08
0.000103366
5.12707e-08
2.0661e-14
-2.76783e-19
-5.53222e-13
7.92465e-18
-2.76783e-19
3.89784e-24
7.92465e-18
-1.16781e-22
7.92465e-18
-1.16781e-22
1.62695e-17
-2.39168e-22
-5.53222e-13
7.92465e-18
-1.13534e-12
1.62695e-17
-1.13534e-12
1.62695e-17
-1.71652e-12
2.39518e-17
1.62695e-17
-2.39168e-22
2.39518e-17
-3.42014e-22
2.39518e-17
-3.42014e-22
1.35434e-17
-1.86322e-22
-1.71652e-12
2.39518e-17
-1.00516e-12
1.35434e-17
0.000103366
5.12707e-08
0.00015505
7.76274e-08
5.12707e-08
-1.13534e-12
7.76274e-08
-1.71652e-12
7.76274e-08
-1.71652e-12
4.72884e-08
-1.00516e-12
0.00015505
7.76274e-08
9.47526e-05
4.72884e-08
8.92536e-43
4.37952e-49
1.74746e-42
1.48712e-49
4.37952e-49
3.77244e-53
1.48712e-49
7.32059e-53
1.48712e-49
7.32059e-53
-2.97827e-49
5.71331e-53
1.74746e-42
1.48712e-49
1.35315e-42
-2.97827e-49
3.77244e-53
1.13516e-58
7.32059e-53
1.92054e-58
1.13516e-58
1.28176e-63
1.92054e-58
2.44263e-63
1.92054e-58
2.44263e-63
1.32518e-58
1.89603e-63
7.32059e-53
1.92054e-58
5.71331e-53
1.32518e-58
5.71331e-53
1.32518e-58
3.07915e-53
6.90679e-59
1.32518e-58
1.89603e-63
6.90679e-59
1.02806e-63
6.90679e-59
1.02806e-63
1.16059e-60
1.95568e-65
3.07915e-53
6.90679e-59
6.82192e-55
1.16059e-60
1.35315e-42
-2.97827e-49
7.18582e-43
-2.00795e-49
-2.97827e-49
5.71331e-53
-2.00795e-49
3.07915e-53
-2.00795e-49
3.07915e-53
-1.11625e-50
6.82192e-55
7.18582e-43
-2.00795e-49
1.82947e-44
-1.11625e-50
1.28176e-63
5.29664e-69
2.44263e-63
9.49381e-69
5.29664e-69
3.42095e-74
9.49381e-69
6.42547e-74
9.49381e-69
6.42547e-74
6.97453e-69
4.95332e-74
2.44263e-63
9.49381e-69
1.89603e-63
6.97453e-69
3.42095e-74
1.44815e-79
6.42547e-74
2.64409e-79
1.44815e-79
6.94301e-85
2.64409e-79
1.29335e-84
2.64409e-79
1.29335e-84
1.98616e-79
9.93205e-85
6.42547e-74
2.64409e-79
4.95332e-74
1.98616e-79
4.95332e-74
1.98616e-79
2.68947e-74
1.06781e-79
1.98616e-79
9.93205e-85
1.06781e-79
5.39387e-85
1.06781e-79
5.39387e-85
1.5357e-81
7.55629e-87
2.68947e-74
1.06781e-79
4.38165e-76
1.5357e-81
1.89603e-63
6.97453e-69
1.02806e-63
3.71359e-69
6.97453e-69
4.95332e-74
3.71359e-69
2.68947e-74
3.71359e-69
2.68947e-74
5.96651e-71
4.38165e-76
1.02806e-63
3.71359e-69
1.95568e-65
5.96651e-71
1.95568e-65
5.96651e-71
-9.99911e-64
-3.62917e-69
5.96651e-71
4.38165e-76
-3.62917e-69
-2.62685e-74
-3.62917e-69
-2.62685e-74
-6.97682e-69
-4.95159e-74
-9.99911e-64
-3.62917e-69
-1.89484e-63
-6.97682e-69
4.38165e-76
1.5357e-81
-2.62685e-74
-1.0461e-79
1.5357e-81
7.55629e-87
-1.0461e-79
-5.28636e-85
-1.0461e-79
-5.28636e-85
-1.98647e-79
-9.93028e-85
-2.62685e-74
-1.0461e-79
-4.95159e-74
-1.98647e-79
-4.95159e-74
-1.98647e-79
-6.48459e-74
-2.66698e-79
-1.98647e-79
-9.93028e-85
-2.66698e-79
-1.30373e-84
-2.66698e-79
-1.30373e-84
-1.46447e-79
-7.01668e-85
-6.48459e-74
-2.66698e-79
-3.46284e-74
-1.46447e-79
-1.89484e-63
-6.97682e-69
-2.46843e-63
-9.58798e-69
-6.97682e-69
-4.95159e-74
-9.58798e-69
-6.48459e-74
-9.58798e-69
-6.48459e-74
-5.36458e-69
-3.46284e-74
-2.46843e-63
-9.58798e-69
-1.29997e-63
-5.36458e-69
1.82947e-44
-1.11625e-50
-6.91458e-43
1.8334e-49
-1.11625e-50
6.82192e-55
1.8334e-49
-2.97985e-53
1.8334e-49
-2.97985e-53
2.92306e-49
-5.70738e-53
-6.91458e-43
1.8334e-49
-1.35096e-42
2.92306e-49
6.82192e-55
1.16059e-60
-2.97985e-53
-6.74338e-59
1.16059e-60
1.95568e-65
-6.74338e-59
-9.99911e-64
-6.74338e-59
-9.99911e-64
-1.32641e-58
-1.89484e-63
-2.97985e-53
-6.74338e-59
-5.70738e-53
-1.32641e-58
-5.70738e-53
-1.32641e-58
-7.40961e-53
-1.94221e-58
-1.32641e-58
-1.89484e-63
-1.94221e-58
-2.46843e-63
-1.94221e-58
-2.46843e-63
-1.15144e-58
-1.29997e-63
-7.40961e-53
-1.94221e-58
-3.83498e-53
-1.15144e-58
-1.35096e-42
2.92306e-49
-1.77191e-42
-1.49433e-49
2.92306e-49
-5.70738e-53
-1.49433e-49
-7.40961e-53
-1.49433e-49
-7.40961e-53
-4.4223e-49
-3.83498e-53
-1.77191e-42
-1.49433e-49
-9.09812e-43
-4.4223e-49
6.94301e-85
2.70532e-90
1.29335e-84
4.97602e-90
2.70532e-90
1.05688e-95
4.97602e-90
1.9607e-95
4.97602e-90
1.9607e-95
3.77759e-90
1.50388e-95
1.29335e-84
4.97602e-90
9.93205e-85
3.77759e-90
1.05688e-95
3.6468e-101
1.9607e-95
6.72797e-101
3.6468e-101
1.20517e-106
6.72797e-101
2.23138e-106
6.72797e-101
2.23138e-106
5.13606e-101
1.71172e-106
1.9607e-95
6.72797e-101
1.50388e-95
5.13606e-101
1.50388e-95
5.13606e-101
8.169e-96
2.78384e-101
5.13606e-101
1.71172e-106
2.78384e-101
9.30089e-107
2.78384e-101
9.30089e-107
3.0958e-103
9.7725e-109
8.169e-96
2.78384e-101
9.89102e-98
3.0958e-103
9.93205e-85
3.77759e-90
5.39387e-85
2.0416e-90
3.77759e-90
1.50388e-95
2.0416e-90
8.169e-96
2.0416e-90
8.169e-96
2.58914e-92
9.89102e-98
5.39387e-85
2.0416e-90
7.55629e-87
2.58914e-92
1.20517e-106
3.63396e-112
2.23138e-106
6.71191e-112
3.63396e-112
1.0313e-117
6.71191e-112
1.90753e-117
6.71191e-112
1.90753e-117
5.1398e-112
1.4642e-117
2.23138e-106
6.71191e-112
1.71172e-106
5.1398e-112
1.0313e-117
2.7029e-123
1.90753e-117
4.99381e-123
2.7029e-123
6.61567e-129
4.99381e-123
1.22291e-128
4.99381e-123
1.22291e-128
3.83124e-123
9.39355e-129
1.90753e-117
4.99381e-123
1.4642e-117
3.83124e-123
1.4642e-117
3.83124e-123
7.9583e-118
2.08165e-123
3.83124e-123
9.39355e-129
2.08165e-123
5.10671e-129
2.08165e-123
5.10671e-129
1.77005e-125
4.06974e-131
7.9583e-118
2.08165e-123
7.27594e-120
1.77005e-125
1.71172e-106
5.1398e-112
9.30089e-107
2.79028e-112
5.1398e-112
1.4642e-117
2.79028e-112
7.9583e-118
2.79028e-112
7.9583e-118
2.71457e-114
7.27594e-120
9.30089e-107
2.79028e-112
9.7725e-109
2.71457e-114
9.7725e-109
2.71457e-114
-9.16243e-107
-2.7519e-112
2.71457e-114
7.27594e-120
-2.7519e-112
-7.85528e-118
-2.7519e-112
-7.85528e-118
-5.13986e-112
-1.46416e-117
-9.16243e-107
-2.7519e-112
-1.71165e-106
-5.13986e-112
7.27594e-120
1.77005e-125
-7.85528e-118
-2.05662e-123
1.77005e-125
4.06974e-131
-2.05662e-123
-5.0491e-129
-2.05662e-123
-5.0491e-129
-3.83123e-123
-9.39334e-129
-7.85528e-118
-2.05662e-123
-1.46416e-117
-3.83123e-123
-1.46416e-117
-3.83123e-123
-1.91772e-117
-5.01876e-123
-3.83123e-123
-9.39334e-129
-5.01876e-123
-1.22861e-128
-5.01876e-123
-1.22861e-128
-2.72057e-123
-6.65604e-129
-1.91772e-117
-5.01876e-123
-1.03852e-117
-2.72057e-123
-1.71165e-106
-5.13986e-112
-2.24504e-106
-6.75039e-112
-5.13986e-112
-1.46416e-117
-6.75039e-112
-1.91772e-117
-6.75039e-112
-1.91772e-117
-3.6612e-112
-1.03852e-117
-2.24504e-106
-6.75039e-112
-1.21485e-106
-3.6612e-112
7.55629e-87
2.58914e-92
-5.28636e-85
-2.005e-90
2.58914e-92
9.89102e-98
-2.005e-90
-8.02865e-96
-2.005e-90
-8.02865e-96
-3.77788e-90
-1.50375e-95
-5.28636e-85
-2.005e-90
-9.93028e-85
-3.77788e-90
9.89102e-98
3.0958e-103
-8.02865e-96
-2.74007e-101
3.0958e-103
9.7725e-109
-2.74007e-101
-9.16243e-107
-2.74007e-101
-9.16243e-107
-5.13625e-101
-1.71165e-106
-8.02865e-96
-2.74007e-101
-1.50375e-95
-5.13625e-101
-1.50375e-95
-5.13625e-101
-1.97445e-95
-6.77222e-101
-5.13625e-101
-1.71165e-106
-6.77222e-101
-2.24504e-106
-6.77222e-101
-2.24504e-106
-3.67815e-101
-1.21485e-106
-1.97445e-95
-6.77222e-101
-1.06663e-95
-3.67815e-101
-9.93028e-85
-3.77788e-90
-1.30373e-84
-5.01358e-90
-3.77788e-90
-1.50375e-95
-5.01358e-90
-1.97445e-95
-5.01358e-90
-1.97445e-95
-2.73197e-90
-1.06663e-95
-1.30373e-84
-5.01358e-90
-7.01668e-85
-2.73197e-90
6.61567e-129
1.49951e-134
1.22291e-128
2.77033e-134
1.49951e-134
3.1554e-140
2.77033e-134
5.83027e-140
2.77033e-134
5.83027e-140
2.12789e-134
4.48122e-140
1.22291e-128
2.77033e-134
9.39355e-129
2.12789e-134
3.1554e-140
6.12846e-146
5.83027e-140
1.13201e-145
6.12846e-146
1.09544e-151
1.13201e-145
2.02335e-151
1.13201e-145
2.02335e-151
8.70179e-146
1.55597e-151
5.83027e-140
1.13201e-145
4.48122e-140
8.70179e-146
4.48122e-140
8.70179e-146
2.43645e-140
4.73091e-146
8.70179e-146
1.55597e-151
4.73091e-146
8.46019e-152
4.73091e-146
8.46019e-152
3.07193e-148
5.13936e-154
2.43645e-140
4.73091e-146
1.69455e-142
3.07193e-148
9.39355e-129
2.12789e-134
5.10671e-129
1.15665e-134
2.12789e-134
4.48122e-140
1.15665e-134
2.43645e-140
1.15665e-134
2.43645e-140
8.59413e-137
1.69455e-142
5.10671e-129
1.15665e-134
4.06974e-131
8.59413e-137
1.09544e-151
1.78754e-157
2.02335e-151
3.301e-157
1.78754e-157
2.63524e-163
3.301e-157
4.86595e-163
3.301e-157
4.86595e-163
2.53889e-157
3.7435e-163
2.02335e-151
3.301e-157
1.55597e-151
2.53889e-157
2.63524e-163
3.44278e-169
4.86595e-163
6.35601e-169
3.44278e-169
3.84433e-175
6.35601e-169
7.09655e-175
6.35601e-169
7.09655e-175
4.89054e-169
5.4613e-175
4.86595e-163
6.35601e-169
3.7435e-163
4.89054e-169
3.7435e-163
4.89054e-169
2.03538e-163
2.65892e-169
4.89054e-169
5.4613e-175
2.65892e-169
2.96917e-175
2.65892e-169
2.96917e-175
1.31977e-171
1.37858e-177
2.03538e-163
2.65892e-169
1.08066e-165
1.31977e-171
1.55597e-151
2.53889e-157
8.46019e-152
1.38039e-157
2.53889e-157
3.7435e-163
1.38039e-157
2.03538e-163
1.38039e-157
2.03538e-163
7.83528e-160
1.08066e-165
8.46019e-152
1.38039e-157
5.13936e-154
7.83528e-160
5.13936e-154
7.83528e-160
-8.38741e-152
-1.3693e-157
7.83528e-160
1.08066e-165
-1.3693e-157
-2.02006e-163
-1.3693e-157
-2.02006e-163
-2.53883e-157
-3.74339e-163
-8.38741e-152
-1.3693e-157
-1.55594e-151
-2.53883e-157
1.08066e-165
1.31977e-171
-2.02006e-163
-2.64022e-169
1.31977e-171
1.37858e-177
-2.64022e-169
-2.94963e-175
-2.64022e-169
-2.94963e-175
-4.8904e-169
-5.46112e-175
-2.02006e-163
-2.64022e-169
-3.74339e-163
-4.8904e-169
-3.74339e-163
-4.8904e-169
-4.88099e-163
-6.37435e-169
-4.8904e-169
-5.46112e-175
-6.37435e-169
-7.11567e-175
-6.37435e-169
-7.11567e-175
-3.45576e-169
-3.85787e-175
-4.88099e-163
-6.37435e-169
-2.64589e-163
-3.45576e-169
-1.55594e-151
-2.53883e-157
-2.03052e-151
-3.31192e-157
-2.53883e-157
-3.74339e-163
-3.31192e-157
-4.88099e-163
-3.31192e-157
-4.88099e-163
-1.79528e-157
-2.64589e-163
-2.03052e-151
-3.31192e-157
-1.10052e-151
-1.79528e-157
4.06974e-131
8.59413e-137
-5.0491e-129
-1.14449e-134
8.59413e-137
1.69455e-142
-1.14449e-134
-2.41247e-140
-1.14449e-134
-2.41247e-140
-2.12786e-134
-4.48112e-140
-5.0491e-129
-1.14449e-134
-9.39334e-129
-2.12786e-134
1.69455e-142
3.07193e-148
-2.41247e-140
-4.68743e-146
3.07193e-148
5.13936e-154
-4.68743e-146
-8.38741e-152
-4.68743e-146
-8.38741e-152
-8.70162e-146
-1.55594e-151
-2.41247e-140
-4.68743e-146
-4.48112e-140
-8.70162e-146
-4.48112e-140
-8.70162e-146
-5.85397e-140
-1.13631e-145
-8.70162e-146
-1.55594e-151
-1.13631e-145
-2.03052e-151
-1.13631e-145
-2.03052e-151
-6.15889e-146
-1.10052e-151
-5.85397e-140
-1.13631e-145
-3.17218e-140
-6.15889e-146
-9.39334e-129
-2.12786e-134
-1.22861e-128
-2.78239e-134
-2.12786e-134
-4.48112e-140
-2.78239e-134
-5.85397e-140
-2.78239e-134
-5.85397e-140
-1.50805e-134
-3.17218e-140
-1.22861e-128
-2.78239e-134
-6.65604e-129
-1.50805e-134
3.84433e-175
3.35787e-181
7.09655e-175
6.19769e-181
3.35787e-181
1.5806e-187
6.19769e-181
2.917e-187
6.19769e-181
2.917e-187
4.77015e-181
2.2454e-187
7.09655e-175
6.19769e-181
5.4613e-175
4.77015e-181
1.5806e-187
-1.49896e-193
2.917e-187
-2.76602e-193
-1.49896e-193
-5.20125e-199
-2.76602e-193
-9.59675e-199
-2.76602e-193
-9.59675e-199
-2.1294e-193
-7.3887e-199
2.917e-187
-2.76602e-193
2.2454e-187
-2.1294e-193
2.2454e-187
-2.1294e-193
1.22066e-187
-1.15754e-193
-2.1294e-193
-7.3887e-199
-1.15754e-193
-4.01631e-199
-1.15754e-193
-4.01631e-199
-4.3989e-196
-1.42819e-201
1.22066e-187
-1.15754e-193
4.95876e-190
-4.3989e-196
5.4613e-175
4.77015e-181
2.96917e-175
2.59329e-181
4.77015e-181
2.2454e-187
2.59329e-181
1.22066e-187
2.59329e-181
1.22066e-187
1.12605e-183
4.95876e-190
2.96917e-175
2.59329e-181
1.37858e-177
1.12605e-183
-5.20125e-199
-8.11257e-205
-9.59675e-199
-1.49668e-204
-8.11257e-205
-8.52187e-211
-1.49668e-204
-1.57203e-210
-1.49668e-204
-1.57203e-210
-1.15241e-204
-1.21053e-210
-9.59675e-199
-1.49668e-204
-7.3887e-199
-1.15241e-204
-8.52187e-211
-5.33096e-217
-1.57203e-210
-9.83311e-217
-5.33096e-217
9.58945e-224
-9.83311e-217
1.76865e-223
-9.83311e-217
1.76865e-223
-7.57236e-217
1.3621e-223
-1.57203e-210
-9.83311e-217
-1.21053e-210
-7.57236e-217
-1.21053e-210
-7.57236e-217
-6.57944e-211
-4.11552e-217
-7.57236e-217
1.3621e-223
-4.11552e-217
7.40256e-224
-4.11552e-217
7.40256e-224
-1.19977e-219
2.02023e-226
-6.57944e-211
-4.11552e-217
-2.04913e-213
-1.19977e-219
-7.3887e-199
-1.15241e-204
-4.01631e-199
-6.2639e-205
-1.15241e-204
-1.21053e-210
-6.2639e-205
-6.57944e-211
-6.2639e-205
-6.57944e-211
-2.08437e-207
-2.04913e-213
-4.01631e-199
-6.2639e-205
-1.42819e-201
-2.08437e-207
-1.42819e-201
-2.08437e-207
3.99603e-199
6.23429e-205
-2.08437e-207
-2.04913e-213
6.23429e-205
6.55032e-211
6.23429e-205
6.55032e-211
1.15236e-204
1.21047e-210
3.99603e-199
6.23429e-205
7.38841e-199
1.15236e-204
-2.04913e-213
-1.19977e-219
6.55032e-211
4.09846e-217
-1.19977e-219
2.02023e-226
4.09846e-217
-7.37381e-224
4.09846e-217
-7.37381e-224
7.57203e-217
-1.36204e-223
6.55032e-211
4.09846e-217
1.21047e-210
7.57203e-217
1.21047e-210
7.57203e-217
1.57484e-210
9.84948e-217
7.57203e-217
-1.36204e-223
9.84948e-217
-1.77139e-223
9.84948e-217
-1.77139e-223
5.34255e-217
-9.6089e-224
1.57484e-210
9.84948e-217
8.54172e-211
5.34255e-217
7.38841e-199
1.15236e-204
9.61639e-199
1.49954e-204
1.15236e-204
1.21047e-210
1.49954e-204
1.57484e-210
1.49954e-204
1.57484e-210
8.13282e-205
8.54172e-211
9.61639e-199
1.49954e-204
5.21515e-199
8.13282e-205
1.37858e-177
1.12605e-183
-2.94963e-175
-2.57732e-181
1.12605e-183
4.95876e-190
-2.57732e-181
-1.21363e-187
-2.57732e-181
-1.21363e-187
-4.76999e-181
-2.24532e-187
-2.94963e-175
-2.57732e-181
-5.46112e-175
-4.76999e-181
4.95876e-190
-4.3989e-196
-1.21363e-187
1.1513e-193
-4.3989e-196
-1.42819e-201
1.1513e-193
3.99603e-199
1.1513e-193
3.99603e-199
2.12932e-193
7.38841e-199
-1.21363e-187
1.1513e-193
-2.24532e-187
2.12932e-193
-2.24532e-187
2.12932e-193
-2.92385e-187
2.77208e-193
2.12932e-193
7.38841e-199
2.77208e-193
9.61639e-199
2.77208e-193
9.61639e-199
1.50326e-193
5.21515e-199
-2.92385e-187
2.77208e-193
-1.58545e-187
1.50326e-193
-5.46112e-175
-4.76999e-181
-7.11567e-175
-6.21328e-181
-4.76999e-181
-2.24532e-187
-6.21328e-181
-2.92385e-187
-6.21328e-181
-2.92385e-187
-3.36891e-181
-1.58545e-187
-7.11567e-175
-6.21328e-181
-3.85787e-175
-3.36891e-181
9.58945e-224
7.88871e-229
1.76865e-223
1.45484e-228
7.88871e-229
1.18918e-234
1.45484e-228
2.19292e-234
1.45484e-228
2.19292e-234
1.12049e-228
1.68902e-234
1.76865e-223
1.45484e-228
1.3621e-223
1.12049e-228
1.18918e-234
1.02458e-240
2.19292e-234
1.88925e-240
1.02458e-240
3.08099e-247
1.88925e-240
5.6807e-247
1.88925e-240
5.6807e-247
1.45519e-240
4.37573e-247
2.19292e-234
1.88925e-240
1.68902e-234
1.45519e-240
1.68902e-234
1.45519e-240
9.17838e-235
7.90737e-241
1.45519e-240
4.37573e-247
7.90737e-241
2.37763e-247
7.90737e-241
2.37763e-247
1.77241e-243
4.99268e-250
9.17838e-235
7.90737e-241
2.19649e-237
1.77241e-243
1.3621e-223
1.12049e-228
7.40256e-224
6.08917e-229
1.12049e-228
1.68902e-234
6.08917e-229
9.17838e-235
6.08917e-229
9.17838e-235
1.55604e-231
2.19649e-237
7.40256e-224
6.08917e-229
2.02023e-226
1.55604e-231
3.08099e-247
-6.0527e-253
5.6807e-247
-1.11592e-252
-6.0527e-253
-1.19127e-258
-1.11592e-252
-2.19616e-258
-1.11592e-252
-2.19616e-258
-8.59601e-253
-1.69178e-258
5.6807e-247
-1.11592e-252
4.37573e-247
-8.59601e-253
-1.19127e-258
-1.08471e-264
-2.19616e-258
-1.99961e-264
-1.08471e-264
-3.45922e-271
-1.99961e-264
-6.37652e-271
-1.99961e-264
-6.37652e-271
-1.54041e-264
-4.91234e-271
-2.19616e-258
-1.99961e-264
-1.69178e-258
-1.54041e-264
-1.69178e-258
-1.54041e-264
-9.19184e-259
-8.36914e-265
-1.54041e-264
-4.91234e-271
-8.36914e-265
-2.6688e-271
-8.36914e-265
-2.6688e-271
-1.44647e-267
-4.32468e-274
-9.19184e-259
-8.36914e-265
-1.69482e-261
-1.44647e-267
4.37573e-247
-8.59601e-253
2.37763e-247
-4.6706e-253
-8.59601e-253
-1.69178e-258
-4.6706e-253
-9.19184e-259
-4.6706e-253
-9.19184e-259
-9.18918e-256
-1.69482e-261
2.37763e-247
-4.6706e-253
4.99268e-250
-9.18918e-256
4.99268e-250
-9.18918e-256
-2.3705e-247
4.65748e-253
-9.18918e-256
-1.69482e-261
4.65748e-253
9.16761e-259
4.65748e-253
9.16761e-259
8.59557e-253
1.69169e-258
-2.3705e-247
4.65748e-253
-4.37551e-247
8.59557e-253
-1.69482e-261
-1.44647e-267
9.16761e-259
8.34844e-265
-1.44647e-267
-4.32468e-274
8.34844e-265
2.6626e-271
8.34844e-265
2.6626e-271
1.54033e-264
4.91207e-271
9.16761e-259
8.34844e-265
1.69169e-258
1.54033e-264
1.69169e-258
1.54033e-264
2.19841e-258
2.00152e-264
1.54033e-264
4.91207e-271
2.00152e-264
6.3822e-271
2.00152e-264
6.3822e-271
1.08607e-264
3.46324e-271