<VTKFile type="UnstructuredGrid" version="0.1" byte_order="LittleEndian">
<UnstructuredGrid>
<Piece NumberOfPoints="2048" NumberOfCells="512">
<Points>
<DataArray type="Float64" NumberOfComponents="3" format="ascii">
0 0 0
0.125 0 0
0 0.125 0
0.125 0.125 0
0.125 0 0
0.25 0 0
0.125 0.125 0
0.25 0.125 0
0.125 0.125 0
0.25 0.125 0
0.125 0.25 0
0.25 0.25 0
0 0.125 0
0.125 0.125 0
0 0.25 0
0.125 0.25 0
0.25 0 0
0.375 0 0
0.25 0.125 0
0.375 0.125 0
0.375 0 0
0.5 0 0
0.375 0.125 0
0.5 0.125 0
0.375 0.125 0
0.5 0.125 0
0.375 0.25 0
0.5 0.25 0
0.25 0.125 0
0.375 0.125 0
0.25 0.25 0
0.375 0.25 0
0.25 0.25 0
0.375 0.25 0
0.25 0.375 0
0.375 0.375 0
0.375 0.25 0
0.5 0.25 0
0.375 0.375 0
0.5 0.375 0
0.375 0.375 0
0.5 0.375 0
0.375 0.5 0
0.5 0.5 0
0.25 0.375 0
0.375 0.375 0
0.25 0.5 0
0.375 0.5 0
0 0.25 0
0.125 0.25 0
0 0.375 0
0.125 0.375 0
0.125 0.25 0
0.25 0.25 0
0.125 0.375 0
0.25 0.375 0
0.125 0.375 0
0.25 0.375 0
0.125 0.5 0
0.25 0.5 0
0 0.375 0
0.125 0.375 0
0 0.5 0
0.125 0.5 0
0.5 0 0
0.625 0 0
0.5 0.125 0
0.625 0.125 0
0.625 0 0
0.75 0 0
0.625 0.125 0
0.75 0.125 0
0.625 0.125 0
0.75 0.125 0
0.625 0.25 0
0.75 0.25 0
0.5 0.125 0
0.625 0.125 0
0.5 0.25 0
0.625 0.25 0
0.75 0 0
0.875 0 0
0.75 0.125 0
0.875 0.125 0
0.875 0 0
1 0 0
0.875 0.125 0
1 0.125 0
0.875 0.125 0
1 0.125 0
0.875 0.25 0
1 0.25 0
0.75 0.125 0
0.875 0.125 0
0.75 0.25 0
0.875 0.25 0
0.75 0.25 0
0.875 0.25 0
0.75 0.375 0
0.875 0.375 0
0.875 0.25 0
1 0.25 0
0.875 0.375 0
1 0.375 0
0.875 0.375 0
1 0.375 0
0.875 0.5 0
1 0.5 0
0.75 0.375 0
0.875 0.375 0
0.75 0.5 0
0.875 0.5 0
0.5 0.25 0
0.625 0.25 0
0.5 0.375 0
0.625 0.375 0
0.625 0.25 0
0.75 0.25 0
0.625 0.375 0
0.75 0.375 0
0.625 0.375 0
0.75 0.375 0
0.625 0.5 0
0.75 0.5 0
0.5 0.375 0
0.625 0.375 0
0.5 0.5 0
0.625 0.5 0
0.5 0.5 0
0.625 0.5 0
0.5 0.625 0
0.625 0.625 0
0.625 0.5 0
0.75 0.5 0
0.625 0.625 0
0.75 0.625 0
0.625 0.625 0
0.75 0.625 0
0.625 0.75 0
0.75 0.75 0
0.5 0.625 0
0.625 0.625 0
0.5 0.75 0
0.625 0.75 0
0.75 0.5 0
0.875 0.5 0
0.75 0.625 0
0.875 0.625 0
0.875 0.5 0
1 0.5 0
0.875 0.625 0
1 0.625 0
0.875 0.625 0
1 0.625 0
0.875 0.75 0
1 0.75 0
0.75 0.625 0
0.875 0.625 0
0.75 0.75 0
0.875 0.75 0
0.75 0.75 0
0.875 0.75 0
0.75 0.875 0
0.875 0.875 0
0.875 0.75 0
1 0.75 0
0.875 0.875 0
1 0.875 0
0.875 0.875 0
1 0.875 0
0.875 1 0
1 1 0
0.75 0.875 0
0.875 0.875 0
0.75 1 0
0.875 1 0
0.5 0.75 0
0.625 0.75 0
0.5 0.875 0
0.625 0.875 0
0.625 0.75 0
0.75 0.75 0
0.625 0.875 0
0.75 0.875 0
0.625 0.875 0
0.75 0.875 0
0.625 1 0
0.75 1 0
0.5 0.875 0
0.625 0.875 0
0.5 1 0
0.625 1 0
0 0.5 0
0.125 0.5 0
0 0.625 0
0.125 0.625 0
0.125 0.5 0
0.25 0.5 0
0.125 0.625 0
0.25 0.625 0
0.125 0.625 0
0.25 0.625 0
0.125 0.75 0
0.25 0.75 0
0 0.625 0
0.125 0.625 0
0 0.75 0
0.125 0.75 0
0.25 0.5 0
0.375 0.5 0
0.25 0.625 0
0.375 0.625 0
0.375 0.5 0
0.5 0.5 0
0.375 0.625 0
0.5 0.625 0
0.375 0.625 0
0.5 0.625 0
0.375 0.75 0
0.5 0.75 0
0.25 0.625 0
0.375 0.625 0
0.25 0.75 0
0.375 0.75 0
0.25 0.75 0
0.375 0.75 0
0.25 0.875 0
0.375 0.875 0
0.375 0.75 0
0.5 0.75 0
0.375 0.875 0
0.5 0.875 0
0.375 0.875 0
0.5 0.875 0
0.375 1 0
0.5 1 0
0.25 0.875 0
0.375 0.875 0
0.25 1 0
0.375 1 0
0 0.75 0
0.125 0.75 0
0 0.875 0
0.125 0.875 0
0.125 0.75 0
0.25 0.75 0
0.125 0.875 0
0.25 0.875 0
0.125 0.875 0
0.25 0.875 0
0.125 1 0
0.25 1 0
0 0.875 0
0.125 0.875 0
0 1 0
0.125 1 0
1 0 0
1.125 0 0
1 0.125 0
1.125 0.125 0
1.125 0 0
1.25 0 0
1.125 0.125 0
1.25 0.125 0
1.125 0.125 0
1.25 0.125 0
1.125 0.25 0
1.25 0.25 0
1 0.125 0
1.125 0.125 0
1 0.25 0
1.125 0.25 0
1.25 0 0
1.375 0 0
1.25 0.125 0
1.375 0.125 0
1.375 0 0
1.5 0 0
1.375 0.125 0
1.5 0.125 0
1.375 0.125 0
1.5 0.125 0
1.375 0.25 0
1.5 0.25 0
1.25 0.125 0
1.375 0.125 0
1.25 0.25 0
1.375 0.25 0
1.25 0.25 0
1.375 0.25 0
1.25 0.375 0
1.375 0.375 0
1.375 0.25 0
1.5 0.25 0
1.375 0.375 0
1.5 0.375 0
1.375 0.375 0
1.5 0.375 0
1.375 0.5 0
1.5 0.5 0
1.25 0.375 0
1.375 0.375 0
1.25 0.5 0
1.375 0.5 0
1 0.25 0
1.125 0.25 0
1 0.375 0
1.125 0.375 0
1.125 0.25 0
1.25 0.25 0
1.125 0.375 0
1.25 0.375 0
1.125 0.375 0
1.25 0.375 0
1.125 0.5 0
1.25 0.5 0
1 0.375 0
1.125 0.375 0
1 0.5 0
1.125 0.5 0
1.5 0 0
1.625 0 0
1.5 0.125 0
1.625 0.125 0
1.625 0 0
1.75 0 0
1.625 0.125 0
1.75 0.125 0
1.625 0.125 0
1.75 0.125 0
1.625 0.25 0
1.75 0.25 0
1.5 0.125 0
1.625 0.125 0
1.5 0.25 0
1.625 0.25 0
1.75 0 0
1.875 0 0
1.75 0.125 0
1.875 0.125 0
1.875 0 0
2 0 0
1.875 0.125 0
2 0.125 0
1.875 0.125 0
2 0.125 0
1.875 0.25 0
2 0.25 0
1.75 0.125 0
1.875 0.125 0
1.75 0.25 0
1.875 0.25 0
1.75 0.25 0
1.875 0.25 0
1.75 0.375 0
1.875 0.375 0
1.875 0.25 0
2 0.25 0
1.875 0.375 0
2 0.375 0
1.875 0.375 0
2 0.375 0
1.875 0.5 0
2 0.5 0
1.75 0.375 0
1.875 0.375 0
1.75 0.5 0
1.875 0.5 0
1.5 0.25 0
1.625 0.25 0
1.5 0.375 0
1.625 0.375 0
1.625 0.25 0
1.75 0.25 0
1.625 0.375 0
1.75 0.375 0
1.625 0.375 0
1.75 0.375 0
1.625 0.5 0
1.75 0.5 0
1.5 0.375 0
1.625 0.375 0
1.5 0.5 0
1.625 0.5 0
1.5 0.5 0
1.625 0.5 0
1.5 0.625 0
1.625 0.625 0
1.625 0.5 0
1.75 0.5 0
1.625 0.625 0
1.75 0.625 0
1.625 0.625 0
1.75 0.625 0
1.625 0.75 0
1.75 0.75 0
1.5 0.625 0
1.625 0.625 0
1.5 0.75 0
1.625 0.75 0
1.75 0.5 0
1.875 0.5 0
1.75 0.625 0
1.875 0.625 0
1.875 0.5 0
2 0.5 0
1.875 0.625 0
2 0.625 0
1.875 0.625 0
2 0.625 0
1.875 0.75 0
2 0.75 0
1.75 0.625 0
1.875 0.625 0
1.75 0.75 0
1.875 0.75 0
1.75 0.75 0
1.875 0.75 0
1.75 0.875 0
1.875 0.875 0
1.875 0.75 0
2 0.75 0
1.875 0.875 0
2 0.875 0
1.875 0.875 0
2 0.875 0
1.875 1 0
2 1 0
1.75 0.875 0
1.875 0.875 0
1.75 1 0
1.875 1 0
1.5 0.75 0
1.625 0.75 0
1.5 0.875 0
1.625 0.875 0
1.625 0.75 0
1.75 0.75 0
1.625 0.875 0
1.75 0.875 0
1.625 0.875 0
1.75 0.875 0
1.625 1 0
1.75 1 0
1.5 0.875 0
1.625 0.875 0
1.5 1 0
1.625 1 0
1 0.5 0
1.125 0.5 0
1 0.625 0
1.125 0.625 0
1.125 0.5 0
1.25 0.5 0
1.125 0.625 0
1.25 0.625 0
1.125 0.625 0
1.25 0.625 0
1.125 0.75 0
1.25 0.75 0
1 0.625 0
1.125 0.625 0
1 0.75 0
1.125 0.75 0
1.25 0.5 0
1.375 0.5 0
1.25 0.625 0
1.375 0.625 0
1.375 0.5 0
1.5 0.5 0
1.375 0.625 0
1.5 0.625 0
1.375 0.625 0
1.5 0.625 0
1.375 0.75 0
1.5 0.75 0
1.25 0.625 0
1.375 0.625 0
1.25 0.75 0
1.375 0.75 0
1.25 0.75 0
1.375 0.75 0
1.25 0.875 0
1.375 0.875 0
1.375 0.75 0
1.5 0.75 0
1.375 0.875 0
1.5 0.875 0
1.375 0.875 0
1.5 0.875 0
1.375 1 0
1.5 1 0
1.25 0.875 0
1.375 0.875 0
1.25 1 0
1.375 1 0
1 0.75 0
1.125 0.75 0
1 0.875 0
1.125 0.875 0
1.125 0.75 0
1.25 0.75 0
1.125 0.875 0
1.25 0.875 0
1.125 0.875 0
1.25 0.875 0
1.125 1 0
1.25 1 0
1 0.875 0
1.125 0.875 0
1 1 0
1.125 1 0
2 0 0
2.125 0 0
2 0.125 0
2.125 0.125 0
2.125 0 0
2.25 0 0
2.125 0.125 0
2.25 0.125 0
2.125 0.125 0
2.25 0.125 0
2.125 0.25 0
2.25 0.25 0
2 0.125 0
2.125 0.125 0
2 0.25 0
2.125 0.25 0
2.25 0 0
2.375 0 0
2.25 0.125 0
2.375 0.125 0
2.375 0 0
2.5 0 0
2.375 0.125 0
2.5 0.125 0
2.375 0.125 0
2.5 0.125 0
2.375 0.25 0
2.5 0.25 0
2.25 0.125 0
2.375 0.125 0
2.25 0.25 0
2.375 0.25 0
2.25 0.25 0
2.375 0.25 0
2.25 0.375 0
2.375 0.375 0
2.375 0.25 0
2.5 0.25 0
2.375 0.375 0
2.5 0.375 0
2.375 0.375 0
2.5 0.375 0
2.375 0.5 0
2.5 0.5 0
2.25 0.375 0
2.375 0.375 0
2.25 0.5 0
2.375 0.5 0
2 0.25 0
2.125 0.25 0
2 0.375 0
2.125 0.375 0
2.125 0.25 0
2.25 0.25 0
2.125 0.375 0
2.25 0.375 0
2.125 0.375 0
2.25 0.375 0
2.125 0.5 0
2.25 0.5 0
2 0.375 0
2.125 0.375 0
2 0.5 0
2.125 0.5 0
2.5 0 0
2.625 0 0
2.5 0.125 0
2.625 0.125 0
2.625 0 0
2.75 0 0
2.625 0.125 0
2.75 0.125 0
2.625 0.125 0
2.75 0.125 0
2.625 0.25 0
2.75 0.25 0
2.5 0.125 0
2.625 0.125 0
2.5 0.25 0
2.625 0.25 0
2.75 0 0
2.875 0 0
2.75 0.125 0
2.875 0.125 0
2.875 0 0
3 0 0
2.875 0.125 0
3 0.125 0
2.875 0.125 0
3 0.125 0
2.875 0.25 0
3 0.25 0
2.75 0.125 0
2.875 0.125 0
2.75 0.25 0
2.875 0.25 0
2.75 0.25 0
2.875 0.25 0
2.75 0.375 0
2.875 0.375 0
2.875 0.25 0
3 0.25 0
2.875 0.375 0
3 0.375 0
2.875 0.375 0
3 0.375 0
2.875 0.5 0
3 0.5 0
2.75 0.375 0
2.875 0.375 0
2.75 0.5 0
2.875 0.5 0
2.5 0.25 0
2.625 0.25 0
2.5 0.375 0
2.625 0.375 0
2.625 0.25 0
2.75 0.25 0
2.625 0.375 0
2.75 0.375 0
2.625 0.375 0
2.75 0.375 0
2.625 0.5 0
2.75 0.5 0
2.5 0.375 0
2.625 0.375 0
2.5 0.5 0
2.625 0.5 0
2.5 0.5 0
2.625 0.5 0
2.5 0.625 0
2.625 0.625 0
2.625 0.5 0
2.75 0.5 0
2.625 0.625 0
2.75 0.625 0
2.625 0.625 0
2.75 0.625 0
2.625 0.75 0
2.75 0.75 0
2.5 0.625 0
2.625 0.625 0
2.5 0.75 0
2.625 0.75 0
2.75 0.5 0
2.875 0.5 0
2.75 0.625 0
2.875 0.625 0
2.875 0.5 0
3 0.5 0
2.875 0.625 0
3 0.625 0
2.875 0.625 0
3 0.625 0
2.875 0.75 0
3 0.75 0
2.75 0.625 0
2.875 0.625 0
2.75 0.75 0
2.875 0.75 0
2.75 0.75 0
2.875 0.75 0
2.75 0.875 0
2.875 0.875 0
2.875 0.75 0
3 0.75 0
2.875 0.875 0
3 0.875 0
2.875 0.875 0
3 0.875 0
2.875 1 0
3 1 0
2.75 0.875 0
2.875 0.875 0
2.75 1 0
2.875 1 0
2.5 0.75 0
2.625 0.75 0
2.5 0.875 0
2.625 0.875 0
2.625 0.75 0
2.75 0.75 0
2.625 0.875 0
2.75 0.875 0
2.625 0.875 0
2.75 0.875 0
2.625 1 0
2.75 1 0
2.5 0.875 0
2.625 0.875 0
2.5 1 0
2.625 1 0
2 0.5 0
2.125 0.5 0
2 0.625 0
2.125 0.625 0
2.125 0.5 0
2.25 0.5 0
2.125 0.625 0
2.25 0.625 0
2.125 0.625 0
2.25 0.625 0
2.125 0.75 0
2.25 0.75 0
2 0.625 0
2.125 0.625 0
2 0.75 0
2.125 0.75 0
2.25 0.5 0
2.375 0.5 0
2.25 0.625 0
2.375 0.625 0
2.375 0.5 0
2.5 0.5 0
2.375 0.625 0
2.5 0.625 0
2.375 0.625 0
2.5 0.625 0
2.375 0.75 0
2.5 0.75 0
2.25 0.625 0
2.375 0.625 0
2.25 0.75 0
2.375 0.75 0
2.25 0.75 0
2.375 0.75 0
2.25 0.875 0
2.375 0.875 0
2.375 0.75 0
2.5 0.75 0
2.375 0.875 0
2.5 0.875 0
2.375 0.875 0
2.5 0.875 0
2.375 1 0
2.5 1 0
2.25 0.875 0
2.375 0.875 0
2.25 1 0
2.375 1 0
2 0.75 0
2.125 0.75 0
2 0.875 0
2.125 0.875 0
2.125 0.75 0
2.25 0.75 0
2.125 0.875 0
2.25 0.875 0
2.125 0.875 0
2.25 0.875 0
2.125 1 0
2.25 1 0
2 0.875 0
2.125 0.875 0
2 1 0
2.125 1 0
3 0 0
3.125 0 0
3 0.125 0
3.125 0.125 0
3.125 0 0
3.25 0 0
3.125 0.125 0
3.25 0.125 0
3.125 0.125 0
3.25 0.125 0
3.125 0.25 0
3.25 0.25 0
3 0.125 0
3.125 0.125 0
3 0.25 0
3.125 0.25 0
3.25 0 0
3.375 0 0
3.25 0.125 0
3.375 0.125 0
3.375 0 0
3.5 0 0
3.375 0.125 0
3.5 0.125 0
3.375 0.125 0
3.5 0.125 0
3.375 0.25 0
3.5 0.25 0
3.25 0.125 0
3.375 0.125 0
3.25 0.25 0
3.375 0.25 0
3.25 0.25 0
3.375 0.25 0
3.25 0.375 0
3.375 0.375 0
3.375 0.25 0
3.5 0.25 0
3.375 0.375 0
3.5 0.375 0
3.375 0.375 0
3.5 0.375 0
3.375 0.5 0
3.5 0.5 0
3.25 0.375 0
3.375 0.375 0
3.25 0.5 0
[...]
<CellData Scalars="attribute">
<DataArray type="Int32" Name="attribute" format="ascii">
1
1
1
1
1
1
1
1
1
1
1
1
1
1
1
1
1
1
1
1
1
1
1
1
1
1
1
1
1
1
1
1
1
1
1
1
1
1
1
1
1
1
1
1
1
1
1
1
1
1
1
1
1
1
1
1
1
1
1
1
1
1
1
1
1
1
1
1
1
1
1
1
1
1
1
1
1
1
1
1
1
1
1
1
1
1
1
1
1
1
1
1
1
1
1
1
1
1
1
1
1
1
1
1
1
1
1
1
1
1
1
1
1
1
1
1
1
1
1
1
1
1
1
1
1
1
1
1
1
1
1
1
1
1
1
1
1
1
1
1
1
1
1
1
1
1
1
1
1
1
1
1
1
1
1
1
1
1
1
1
1
1
1
1
1
1
1
1
1
1
1
1
1
1
1
1
1
1
1
1
1
1
1
1
1
1
1
1
1
1
1
1
1
1
1
1
1
1
1
1
1
1
1
1
1
1
1
1
1
1
1
1
1
1
1
1
1
1
1
1
1
1
1
1
1
1
1
1
1
1
1
1
1
1
1
1
1
1
1
1
1
1
1
1
1
1
1
1
1
1
1
1
1
1
1
1
2
2
2
2
2
2
2
2
2
2
2
2
2
2
2
2
2
2
2
2
2
2
2
2
2
2
2
2
2
2
2
2
2
2
2
2
2
2
2
2
2
2
2
2
2
2
2
2
2
2
2
2
2
2
2
2
2
2
2
2
2
2
2
2
2
2
2
2
2
2
2
2
2
2
2
2
2
2
2
2
2
2
2
2
2
2
2
2
2
2
2
2
2
2
2
2
2
2
2
2
2
2
2
2
2
2
2
2
2
2
2
2
2
2
2
2
2
2
2
2
2
2
2
2
2
2
2
2
2
2
2
2
2
2
2
2
2
2
2
2
2
2
2
2
2
2
2
2
2
2
2
2
2
2
2
2
2
2
2
2
2
2
2
2
2
2
2
2
2
2
2
2
2
2
2
2
2
2
2
2
2
2
2
2
2
2
2
2
2
2
2
2
2
2
2
2
2
2
2
2
2
2
2
2
2
2
2
2
2
2
2
2
2
2
2
2
2
2
2
2
2
2
2
2
2
2
2
2
2
2
2
2
2
2
2
2
2
2
2
2
2
2
2
2
2
2
2
2
2
2
2
2
2
2
2
2
</DataArray>
</CellData>
<PointData >
<DataArray type="Float64" Name="Pressure" NumberOfComponents="1" format="ascii" >
-0.000659469
-1.18461e-06
-0.00107917
-1.96099e-06
-1.18461e-06
8.43845e-11
-1.96099e-06
1.46137e-10
-1.96099e-06
1.46137e-10
-1.31651e-06
9.92395e-11
-0.00107917
-1.96099e-06
-0.000719458
-1.31651e-06
8.43845e-11
-3.79525e-15
1.46137e-10
-6.77664e-15
-3.79525e-15
1.72993e-19
-6.77664e-15
3.20257e-19
-6.77664e-15
3.20257e-19
-4.71869e-15
2.29047e-19
1.46137e-10
-6.77664e-15
9.92395e-11
-4.71869e-15
9.92395e-11
-4.71869e-15
5.08573e-11
-2.41122e-15
-4.71869e-15
2.29047e-19
-2.41122e-15
1.17165e-19
-2.41122e-15
1.17165e-19
-7.98472e-17
3.71767e-21
5.08573e-11
-2.41122e-15
1.79402e-12
-7.98472e-17
-0.000719458
-1.31651e-06
-0.000359742
-6.68516e-07
-1.31651e-06
9.92395e-11
-6.68516e-07
5.08573e-11
-6.68516e-07
5.08573e-11
-1.48076e-08
1.79402e-12
-0.000359742
-6.68516e-07
-1.82187e-08
-1.48076e-08
1.72993e-19
-4.08716e-24
3.20257e-19
-7.84242e-24
-4.08716e-24
1.6782e-28
-7.84242e-24
3.2377e-28
-7.84242e-24
3.2377e-28
-5.81039e-24
2.43299e-28
3.20257e-19
-7.84242e-24
2.29047e-19
-5.81039e-24
1.6782e-28
-1.67719e-33
3.2377e-28
-3.56926e-33
-1.67719e-33
1.06126e-37
-3.56926e-33
2.07796e-37
-3.56926e-33
2.07796e-37
-2.88682e-33
1.60917e-37
3.2377e-28
-3.56926e-33
2.43299e-28
-2.88682e-33
2.43299e-28
-2.88682e-33
1.2649e-28
-1.52224e-33
-2.88682e-33
1.60917e-37
-1.52224e-33
8.54574e-38
-1.52224e-33
8.54574e-38
-4.39027e-35
2.17593e-39
1.2649e-28
-1.52224e-33
3.62846e-30
-4.39027e-35
2.29047e-19
-5.81039e-24
1.17165e-19
-2.99049e-24
-5.81039e-24
2.43299e-28
-2.99049e-24
1.2649e-28
-2.99049e-24
1.2649e-28
-9.13604e-26
3.62846e-30
1.17165e-19
-2.99049e-24
3.71767e-21
-9.13604e-26
3.71767e-21
-9.13604e-26
-1.11312e-19
2.8481e-24
-9.13604e-26
3.62846e-30
2.8481e-24
-1.20954e-28
2.8481e-24
-1.20954e-28
5.78956e-24
-2.42655e-28
-1.11312e-19
2.8481e-24
-2.2797e-19
5.78956e-24
3.62846e-30
-4.39027e-35
-1.20954e-28
1.45572e-33
-4.39027e-35
2.17593e-39
1.45572e-33
-8.22315e-38
1.45572e-33
-8.22315e-38
2.87902e-33
-1.60657e-37
-1.20954e-28
1.45572e-33
-2.42655e-28
2.87902e-33
-2.42655e-28
2.87902e-33
-3.28937e-28
3.62364e-33
2.87902e-33
-1.60657e-37
3.62364e-33
-2.10703e-37
3.62364e-33
-2.10703e-37
1.71381e-33
-1.08181e-37
-3.28937e-28
3.62364e-33
-1.71598e-28
1.71381e-33
-2.2797e-19
5.78956e-24
-3.25967e-19
7.97595e-24
5.78956e-24
-2.42655e-28
7.97595e-24
-3.28937e-28
7.97595e-24
-3.28937e-28
4.18639e-24
-1.71598e-28
-3.25967e-19
7.97595e-24
-1.77543e-19
4.18639e-24
-1.82187e-08
-1.48076e-08
0.000359712
6.44619e-07
-1.48076e-08
1.79402e-12
6.44619e-07
-4.79683e-11
6.44619e-07
-4.79683e-11
1.30976e-06
-9.84458e-11
0.000359712
6.44619e-07
0.00071945
1.30976e-06
1.79402e-12
-7.98472e-17
-4.79683e-11
2.28393e-15
-7.98472e-17
3.71767e-21
2.28393e-15
-1.11312e-19
2.28393e-15
-1.11312e-19
4.68909e-15
-2.2797e-19
-4.79683e-11
2.28393e-15
-9.84458e-11
4.68909e-15
-9.84458e-11
4.68909e-15
-1.48843e-10
6.9028e-15
4.68909e-15
-2.2797e-19
6.9028e-15
-3.25967e-19
6.9028e-15
-3.25967e-19
3.90264e-15
-1.77543e-19
-1.48843e-10
6.9028e-15
-8.71554e-11
3.90264e-15
0.00071945
1.30976e-06
0.0010792
1.98306e-06
1.30976e-06
-9.84458e-11
1.98306e-06
-1.48843e-10
1.98306e-06
-1.48843e-10
1.20799e-06
-8.71554e-11
0.0010792
1.98306e-06
0.000659498
1.20799e-06
1.06126e-37
1.84139e-43
2.07796e-37
7.21544e-44
1.84139e-43
5.28284e-47
7.21544e-44
1.02511e-46
7.21544e-44
1.02511e-46
-1.12156e-43
8.00018e-47
2.07796e-37
7.21544e-44
1.60917e-37
-1.12156e-43
5.28284e-47
5.57045e-52
1.02511e-46
9.42989e-52
5.57045e-52
2.2121e-56
9.42989e-52
4.21522e-56
9.42989e-52
4.21522e-56
6.51046e-52
3.27174e-56
1.02511e-46
9.42989e-52
8.00018e-47
6.51046e-52
8.00018e-47
6.51046e-52
4.31168e-47
3.39378e-52
6.51046e-52
3.27174e-56
3.39378e-52
1.77396e-56
3.39378e-52
1.77396e-56
5.70878e-54
3.3741e-58
4.31168e-47
3.39378e-52
9.55194e-49
5.70878e-54
1.60917e-37
-1.12156e-43
8.54574e-38
-7.69174e-44
-1.12156e-43
8.00018e-47
-7.69174e-44
4.31168e-47
-7.69174e-44
4.31168e-47
-4.43133e-45
9.55194e-49
8.54574e-38
-7.69174e-44
2.17593e-39
-4.43133e-45
2.2121e-56
3.27502e-61
4.21522e-56
5.87115e-61
3.27502e-61
7.65817e-66
5.87115e-61
1.43833e-65
5.87115e-61
1.43833e-65
4.31381e-61
1.10873e-65
4.21522e-56
5.87115e-61
3.27174e-56
4.31381e-61
7.65817e-66
1.19321e-70
1.43833e-65
2.17876e-70
1.19321e-70
2.13528e-75
2.17876e-70
3.97749e-75
2.17876e-70
3.97749e-75
1.63672e-70
3.05435e-75
1.43833e-65
2.17876e-70
1.10873e-65
1.63672e-70
1.10873e-65
1.63672e-70
6.01988e-66
8.79964e-71
1.63672e-70
3.05435e-75
8.79964e-71
1.65872e-75
8.79964e-71
1.65872e-75
1.26563e-72
2.32343e-77
6.01988e-66
8.79964e-71
9.80603e-68
1.26563e-72
3.27174e-56
4.31381e-61
1.77396e-56
2.297e-61
4.31381e-61
1.10873e-65
2.297e-61
6.01988e-66
2.297e-61
6.01988e-66
3.69134e-63
9.80603e-68
1.77396e-56
2.297e-61
3.3741e-58
3.69134e-63
3.3741e-58
3.69134e-63
-1.7254e-56
-2.24477e-61
3.69134e-63
9.80603e-68
-2.24477e-61
-5.87973e-66
-2.24477e-61
-5.87973e-66
-4.31521e-61
-1.10835e-65
-1.7254e-56
-2.24477e-61
-3.26968e-56
-4.31521e-61
9.80603e-68
1.26563e-72
-5.87973e-66
-8.62064e-71
1.26563e-72
2.32343e-77
-8.62064e-71
-1.62567e-75
-8.62064e-71
-1.62567e-75
-1.63697e-70
-3.05381e-75
-5.87973e-66
-8.62064e-71
-1.10835e-65
-1.63697e-70
-1.10835e-65
-1.63697e-70
-1.45157e-65
-2.19762e-70
-1.63697e-70
-3.05381e-75
-2.19762e-70
-4.00943e-75
-2.19762e-70
-4.00943e-75
-1.20666e-70
-2.15793e-75
-1.45157e-65
-2.19762e-70
-7.75192e-66
-1.20666e-70
-3.26968e-56
-4.31521e-61
-4.25974e-56
-5.92938e-61
-4.31521e-61
-1.10835e-65
-5.92938e-61
-1.45157e-65
-5.92938e-61
-1.45157e-65
-3.31703e-61
-7.75192e-66
-4.25974e-56
-5.92938e-61
-2.24352e-56
-3.31703e-61
2.17593e-39
-4.43133e-45
-8.22315e-38
6.99786e-44
-4.43133e-45
9.55194e-49
6.99786e-44
-4.17265e-47
6.99786e-44
-4.17265e-47
1.09922e-43
-7.99189e-47
-8.22315e-38
6.99786e-44
-1.60657e-37
1.09922e-43
9.55194e-49
5.70878e-54
-4.17265e-47
-3.31338e-52
5.70878e-54
3.3741e-58
-3.31338e-52
-1.7254e-56
-3.31338e-52
-1.7254e-56
-6.51647e-52
-3.26968e-56
-4.17265e-47
-3.31338e-52
-7.99189e-47
-6.51647e-52
-7.99189e-47
-6.51647e-52
-1.03758e-46
-9.5363e-52
-6.51647e-52
-3.26968e-56
-9.5363e-52
-4.25974e-56
-9.5363e-52
-4.25974e-56
-5.65034e-52
-2.24352e-56
-1.03758e-46
-9.5363e-52
-5.37041e-47
-5.65034e-52
-1.60657e-37
1.09922e-43
-2.10703e-37
-7.2596e-44
1.09922e-43
-7.99189e-47
-7.2596e-44
-1.03758e-46
-7.2596e-44
-1.03758e-46
-1.85985e-43
-5.37041e-47
-2.10703e-37
-7.2596e-44
-1.08181e-37
-1.85985e-43
2.13528e-75
3.15855e-80
3.97749e-75
5.80983e-80
3.15855e-80
4.76293e-85
5.80983e-80
8.83599e-85
5.80983e-80
8.83599e-85
4.4107e-80
6.77719e-85
3.97749e-75
5.80983e-80
3.05435e-75
4.4107e-80
4.76293e-85
6.46231e-90
8.83599e-85
1.19225e-89
6.46231e-90
8.56059e-95
1.19225e-89
1.585e-94
1.19225e-89
1.585e-94
9.1016e-90
1.21586e-94
8.83599e-85
1.19225e-89
6.77719e-85
9.1016e-90
6.77719e-85
9.1016e-90
3.68131e-85
4.93325e-90
9.1016e-90
1.21586e-94
4.93325e-90
6.60654e-95
4.93325e-90
6.60654e-95
5.48601e-92
6.94103e-97
3.68131e-85
4.93325e-90
4.45691e-87
5.48601e-92
3.05435e-75
4.4107e-80
1.65872e-75
2.3838e-80
4.4107e-80
6.77719e-85
2.3838e-80
3.68131e-85
2.3838e-80
3.68131e-85
3.02315e-82
4.45691e-87
1.65872e-75
2.3838e-80
2.32343e-77
3.02315e-82
8.56059e-95
1.05662e-99
1.585e-94
1.95159e-99
1.05662e-99
1.25522e-104
1.95159e-99
2.3217e-104
1.95159e-99
2.3217e-104
1.49448e-99
1.78211e-104
1.585e-94
1.95159e-99
1.21586e-94
1.49448e-99
1.25522e-104
1.41108e-109
2.3217e-104
2.60709e-109
1.41108e-109
1.52132e-114
2.60709e-109
2.81218e-114
2.60709e-109
2.81218e-114
2.00016e-109
2.16012e-114
2.3217e-104
2.60709e-109
1.78211e-104
2.00016e-109
1.78211e-104
2.00016e-109
9.68617e-105
1.08676e-109
2.00016e-109
2.16012e-114
1.08676e-109
1.17432e-114
1.08676e-109
1.17432e-114
9.24046e-112
9.35815e-117
9.68617e-105
1.08676e-109
8.85512e-107
9.24046e-112
1.21586e-94
1.49448e-99
6.60654e-95
8.11322e-100
1.49448e-99
1.78211e-104
8.11322e-100
9.68617e-105
8.11322e-100
9.68617e-105
7.89284e-102
8.85512e-107
6.60654e-95
8.11322e-100
6.94103e-97
7.89284e-102
6.94103e-97
7.89284e-102
-6.5082e-95
-8.00162e-100
7.89284e-102
8.85512e-107
-8.00162e-100
-9.5608e-105
-8.00162e-100
-9.5608e-105
-1.4945e-99
-1.78206e-104
-6.5082e-95
-8.00162e-100
-1.21581e-94
-1.4945e-99
8.85512e-107
9.24046e-112
-9.5608e-105
-1.07369e-109
9.24046e-112
9.35815e-117
-1.07369e-109
-1.16108e-114
-1.07369e-109
-1.16108e-114
-2.00016e-109
-2.16007e-114
-9.5608e-105
-1.07369e-109
-1.78206e-104
-2.00016e-109
-1.78206e-104
-2.00016e-109
-2.3341e-104
-2.62012e-109
-2.00016e-109
-2.16007e-114
-2.62012e-109
-2.82528e-114
-2.62012e-109
-2.82528e-114
-1.4203e-109
-1.5306e-114
-2.3341e-104
-2.62012e-109
-1.26401e-104
-1.4203e-109
-1.21581e-94
-1.4945e-99
-1.5947e-94
-1.96277e-99
-1.4945e-99
-1.78206e-104
-1.96277e-99
-2.3341e-104
-1.96277e-99
-2.3341e-104
-1.06454e-99
-1.26401e-104
-1.5947e-94
-1.96277e-99
-8.62936e-95
-1.06454e-99
2.32343e-77
3.02315e-82
-1.62567e-75
-2.34106e-80
3.02315e-82
4.45691e-87
-2.34106e-80
-3.61806e-85
-2.34106e-80
-3.61806e-85
-4.41105e-80
-6.77659e-85
-1.62567e-75
-2.34106e-80
-3.05381e-75
-4.41105e-80
4.45691e-87
5.48601e-92
-3.61806e-85
-4.8557e-90
5.48601e-92
6.94103e-97
-4.8557e-90
-6.5082e-95
-4.8557e-90
-6.5082e-95
-9.10193e-90
-1.21581e-94
-3.61806e-85
-4.8557e-90
-6.77659e-85
-9.10193e-90
-6.77659e-85
-9.10193e-90
-8.89795e-85
-1.20009e-89
-9.10193e-90
-1.21581e-94
-1.20009e-89
-1.5947e-94
-1.20009e-89
-1.5947e-94
-6.51785e-90
-8.62936e-95
-8.89795e-85
-1.20009e-89
-4.80688e-85
-6.51785e-90
-3.05381e-75
-4.41105e-80
-4.00943e-75
-5.85368e-80
-4.41105e-80
-6.77659e-85
-5.85368e-80
-8.89795e-85
-5.85368e-80
-8.89795e-85
-3.18966e-80
-4.80688e-85
-4.00943e-75
-5.85368e-80
-2.15793e-75
-3.18966e-80
1.52132e-114
1.56413e-119
2.81218e-114
2.88973e-119
1.56413e-119
1.54272e-124
2.88973e-119
2.8505e-124
2.88973e-119
2.8505e-124
2.21961e-119
2.19093e-124
2.81218e-114
2.88973e-119
2.16012e-114
2.21961e-119
1.54272e-124
1.45758e-129
2.8505e-124
2.69236e-129
1.45758e-129
1.32313e-134
2.69236e-129
2.44391e-134
2.69236e-129
2.44391e-134
2.06963e-129
1.87939e-134
2.8505e-124
2.69236e-129
2.19093e-124
2.06963e-129
2.19093e-124
2.06963e-129
1.19122e-124
1.1252e-129
2.06963e-129
1.87939e-134
1.1252e-129
1.02187e-134
1.1252e-129
1.02187e-134
7.30595e-132
6.2073e-137
1.19122e-124
1.1252e-129
8.28446e-127
7.30595e-132
2.16012e-114
2.21961e-119
1.17432e-114
1.20651e-119
2.21961e-119
2.19093e-124
1.20651e-119
1.19122e-124
1.20651e-119
1.19122e-124
8.96421e-122
8.28446e-127
1.17432e-114
1.20651e-119
9.35815e-117
8.96421e-122
1.32313e-134
1.15406e-139
2.44391e-134
2.13118e-139
1.15406e-139
9.68872e-145
2.13118e-139
1.78902e-144
2.13118e-139
1.78902e-144
1.63915e-139
1.37634e-144
2.44391e-134
2.13118e-139
1.87939e-134
1.63915e-139
9.68872e-145
7.83375e-150
1.78902e-144
1.44626e-149
7.83375e-150
6.10735e-155
1.44626e-149
1.12741e-154
1.44626e-149
1.12741e-154
1.11281e-149
8.6762e-155
1.78902e-144
1.44626e-149
1.37634e-144
1.11281e-149
1.37634e-144
1.11281e-149
7.48328e-145
6.05017e-150
1.11281e-149
8.6762e-155
6.05017e-150
4.71703e-155
6.05017e-150
4.71703e-155
3.00289e-152
2.19001e-157
7.48328e-145
6.05017e-150
3.97297e-147
3.00289e-152
1.87939e-134
1.63915e-139
1.02187e-134
8.91207e-140
1.63915e-139
1.37634e-144
8.91207e-140
7.48328e-145
8.91207e-140
7.48328e-145
5.05837e-142
3.97297e-147
1.02187e-134
8.91207e-140
6.2073e-137
5.05837e-142
6.2073e-137
5.05837e-142
-1.01308e-134
-8.84043e-140
5.05837e-142
3.97297e-147
-8.84043e-140
-7.42699e-145
-8.84043e-140
-7.42699e-145
-1.63911e-139
-1.3763e-144
-1.01308e-134
-8.84043e-140
-1.87934e-134
-1.63911e-139
3.97297e-147
3.00289e-152
-7.42699e-145
-6.00762e-150
3.00289e-152
2.19001e-157
-6.00762e-150
-4.68599e-155
-6.00762e-150
-4.68599e-155
-1.11277e-149
-8.67592e-155
-7.42699e-145
-6.00762e-150
-1.3763e-144
-1.11277e-149
-1.3763e-144
-1.11277e-149
-1.79455e-144
-1.45043e-149
-1.11277e-149
-8.67592e-155
-1.45043e-149
-1.13044e-154
-1.45043e-149
-1.13044e-154
-7.8633e-150
-6.12886e-155
-1.79455e-144
-1.45043e-149
-9.72788e-145
-7.8633e-150
-1.87934e-134
-1.63911e-139
-2.45257e-134
-2.13823e-139
-1.63911e-139
-1.3763e-144
-2.13823e-139
-1.79455e-144
-2.13823e-139
-1.79455e-144
-1.15906e-139
-9.72788e-145
-2.45257e-134
-2.13823e-139
-1.32926e-134
-1.15906e-139
9.35815e-117
8.96421e-122
-1.16108e-114
-1.19383e-119
8.96421e-122
8.28446e-127
-1.19383e-119
-1.17949e-124
-1.19383e-119
-1.17949e-124
-2.21959e-119
-2.19088e-124
-1.16108e-114
-1.19383e-119
-2.16007e-114
-2.21959e-119
8.28446e-127
7.30595e-132
-1.17949e-124
-1.11486e-129
7.30595e-132
6.2073e-137
-1.11486e-129
-1.01308e-134
-1.11486e-129
-1.01308e-134
-2.06959e-129
-1.87934e-134
-1.17949e-124
-1.11486e-129
-2.19088e-124
-2.06959e-129
-2.19088e-124
-2.06959e-129
-2.86209e-124
-2.70258e-129
-2.06959e-129
-1.87934e-134
-2.70258e-129
-2.45257e-134
-2.70258e-129
-2.45257e-134
-1.46482e-129
-1.32926e-134
-2.86209e-124
-2.70258e-129
-1.55092e-124
-1.46482e-129
-2.16007e-114
-2.21959e-119
-2.82528e-114
-2.90232e-119
-2.21959e-119
-2.19088e-124
-2.90232e-119
-2.86209e-124
-2.90232e-119
-2.86209e-124
-1.57305e-119
-1.55092e-124
-2.82528e-114
-2.90232e-119
-1.5306e-114
-1.57305e-119
6.10735e-155
4.59438e-160
1.12741e-154
8.47996e-160
4.59438e-160
3.33801e-165
8.47996e-160
6.16033e-165
8.47996e-160
6.16033e-165
6.52674e-160
4.74201e-165
1.12741e-154
8.47996e-160
8.6762e-155
6.52674e-160
3.33801e-165
2.3439e-170
6.16033e-165
4.32518e-170
2.3439e-170
1.59189e-175
4.32518e-170
2.93717e-175
4.32518e-170
2.93717e-175
3.32971e-170
2.26138e-175
6.16033e-165
4.32518e-170
4.74201e-165
3.32971e-170
4.74201e-165
3.32971e-170
2.57789e-165
1.81003e-170
3.32971e-170
2.26138e-175
1.81003e-170
1.22923e-175
1.81003e-170
1.22923e-175
6.87831e-173
4.37096e-178
2.57789e-165
1.81003e-170
1.04717e-167
6.87831e-173
8.6762e-155
6.52674e-160
4.71703e-155
3.54826e-160
6.52674e-160
4.74201e-165
3.54826e-160
2.57789e-165
3.54826e-160
2.57789e-165
1.54065e-162
1.04717e-167
4.71703e-155
3.54826e-160
2.19001e-157
1.54065e-162
1.59189e-175
1.04638e-180
2.93717e-175
1.93045e-180
1.04638e-180
6.6611e-186
1.93045e-180
1.22878e-185
1.93045e-180
1.22878e-185
1.48641e-180
9.46208e-186
2.93717e-175
1.93045e-180
2.26138e-175
1.48641e-180
6.6611e-186
4.10907e-191
1.22878e-185
7.57931e-191
4.10907e-191
2.45768e-196
7.57931e-191
4.53287e-196
7.57931e-191
4.53287e-196
5.83675e-191
3.49093e-196
1.22878e-185
7.57931e-191
9.46208e-186
5.83675e-191
9.46208e-186
5.83675e-191
5.14283e-186
3.17223e-191
5.83675e-191
3.49093e-196
3.17223e-191
1.8972e-196
3.17223e-191
1.8972e-196
9.24739e-194
5.17768e-199
5.14283e-186
3.17223e-191
1.60164e-188
9.24739e-194
2.26138e-175
1.48641e-180
1.22923e-175
8.07932e-181
1.48641e-180
9.46208e-186
8.07932e-181
5.14283e-186
8.07932e-181
5.14283e-186
2.68835e-183
1.60164e-188
1.22923e-175
8.07932e-181
4.37096e-178
2.68835e-183
4.37096e-178
2.68835e-183
-1.22302e-175
-8.04113e-181
2.68835e-183
1.60164e-188
-8.04113e-181
-5.12006e-186
-8.04113e-181
-5.12006e-186
-1.48635e-180
-9.46168e-186
-1.22302e-175
-8.04113e-181
-2.26129e-175
-1.48635e-180
1.60164e-188
9.24739e-194
-5.12006e-186
-3.15908e-191
9.24739e-194
5.17768e-199
-3.15908e-191
-1.88983e-196
-3.15908e-191
-1.88983e-196
-5.8365e-191
-3.49077e-196
-5.12006e-186
-3.15908e-191
-9.46168e-186
-5.8365e-191
-9.46168e-186
-5.8365e-191
-1.23097e-185
-7.59192e-191
-5.8365e-191
-3.49077e-196
-7.59192e-191
-4.53991e-196
-7.59192e-191
-4.53991e-196
-4.118e-191
-2.46267e-196
-1.23097e-185
-7.59192e-191
-6.67662e-186
-4.118e-191
-2.26129e-175
-1.48635e-180
-2.94319e-175
-1.93414e-180
-1.48635e-180
-9.46168e-186
-1.93414e-180
-1.23097e-185
-1.93414e-180
-1.23097e-185
-1.04899e-180
-6.67662e-186
-2.94319e-175
-1.93414e-180
-1.59614e-175
-1.04899e-180
2.19001e-157
1.54065e-162
-4.68599e-155
-3.52641e-160
1.54065e-162
1.04717e-167
-3.52641e-160
-2.56304e-165
-3.52641e-160
-2.56304e-165
-6.52652e-160
-4.74184e-165
-4.68599e-155
-3.52641e-160
-8.67592e-155
-6.52652e-160
1.04717e-167
6.87831e-173
-2.56304e-165
-1.80027e-170
6.87831e-173
4.37096e-178
-1.80027e-170
-1.22302e-175
-1.80027e-170
-1.22302e-175
-3.32958e-170
-2.26129e-175
-2.56304e-165
-1.80027e-170
-4.74184e-165
-3.32958e-170
-4.74184e-165
-3.32958e-170
-6.1748e-165
-4.33466e-170
-3.32958e-170
-2.26129e-175
-4.33466e-170
-2.94319e-175
-4.33466e-170
-2.94319e-175
-2.35062e-170
-1.59614e-175
-6.1748e-165
-4.33466e-170
-3.34825e-165
-2.35062e-170
-8.67592e-155
-6.52652e-160
-1.13044e-154
-8.50129e-160
-6.52652e-160
-4.74184e-165
-8.50129e-160
-6.1748e-165
-8.50129e-160
-6.1748e-165
-4.60948e-160
-3.34825e-165
-1.13044e-154
-8.50129e-160
-6.12886e-155
-4.60948e-160
2.45768e-196
1.426e-201
4.53287e-196
2.62985e-201
1.426e-201
8.03055e-207
2.62985e-201
1.48088e-206
2.62985e-201
1.48088e-206
2.02545e-201
1.1406e-206
4.53287e-196
2.62985e-201
3.49093e-196
2.02545e-201
8.03055e-207
4.3914e-212
1.48088e-206
8.09741e-212
4.3914e-212
2.33284e-217
8.09741e-212
4.30128e-217
8.09741e-212
4.30128e-217
6.23703e-212
3.3132e-217
1.48088e-206
8.09741e-212
1.1406e-206
6.23703e-212
1.1406e-206
6.23703e-212
6.1982e-207
3.38914e-212
6.23703e-212
3.3132e-217
3.38914e-212
1.80028e-217
3.38914e-212
1.80028e-217
7.59635e-215
3.78011e-220
6.1982e-207
3.38914e-212
1.48324e-209
7.59635e-215
3.49093e-196
2.02545e-201
1.8972e-196
1.10071e-201
2.02545e-201
1.1406e-206
1.10071e-201
6.1982e-207
1.10071e-201
6.1982e-207
2.81268e-204
1.48324e-209
1.8972e-196
1.10071e-201
5.17768e-199
2.81268e-204
2.33284e-217
1.20441e-222
4.30128e-217
2.22054e-222
1.20441e-222
6.0456e-228
2.22054e-222
1.11454e-227
2.22054e-222
1.11454e-227
1.7105e-222
8.58569e-228
4.30128e-217
2.22054e-222
3.3132e-217
1.7105e-222
6.0456e-228
2.95149e-233
1.11454e-227
5.44091e-233
2.95149e-233
1.40194e-238
5.44091e-233
2.58426e-238
5.44091e-233
2.58426e-238
4.19145e-233
1.99087e-238
1.11454e-227
5.44091e-233
8.58569e-228
4.19145e-233
8.58569e-228
4.19145e-233
4.66482e-228
2.27724e-233
4.19145e-233
1.99087e-238
2.27724e-233
1.08161e-238
2.27724e-233
1.08161e-238
3.93568e-236
1.75261e-241
4.66482e-228
2.27724e-233
8.60085e-231
3.93568e-236
3.3132e-217
1.7105e-222
1.80028e-217
9.29392e-223
1.7105e-222
8.58569e-228
9.29392e-223
4.66482e-228
9.29392e-223
4.66482e-228
1.82848e-225
8.60085e-231
1.80028e-217
9.29392e-223
3.78011e-220
1.82848e-225
3.78011e-220
1.82848e-225
-1.79489e-217
-9.26781e-223
1.82848e-225
8.60085e-231
-9.26781e-223
-4.65252e-228
-9.26781e-223
-4.65252e-228
-1.71041e-222
-8.58525e-228
-1.79489e-217
-9.26781e-223
-3.31303e-217
-1.71041e-222
8.60085e-231
3.93568e-236
-4.65252e-228
-2.27161e-233
3.93568e-236
1.75261e-241
-2.27161e-233
-1.0791e-238
-2.27161e-233
-1.0791e-238
-4.19124e-233
-1.99076e-238
-4.65252e-228
-2.27161e-233
-8.58525e-228
-4.19124e-233
-8.58525e-228
-4.19124e-233
-1.11568e-227
-5.44611e-233
-4.19124e-233
-1.99076e-238
-5.44611e-233
-2.58656e-238
-5.44611e-233
-2.58656e-238
-2.95517e-233
-1.40357e-238
-1.11568e-227
-5.44611e-233
-6.05368e-228
-2.95517e-233
-3.31303e-217
-1.71041e-222
-4.30635e-217
-2.22297e-222
-1.71041e-222