<VTKFile type="UnstructuredGrid" version="0.1" byte_order="LittleEndian">
<UnstructuredGrid>
<Piece NumberOfPoints="2048" NumberOfCells="512">
<Points>
<DataArray type="Float64" NumberOfComponents="3" format="ascii">
0 0 0
0.125 0 0
0 0.125 0
0.125 0.125 0
0.125 0 0
0.25 0 0
0.125 0.125 0
0.25 0.125 0
0.125 0.125 0
0.25 0.125 0
0.125 0.25 0
0.25 0.25 0
0 0.125 0
0.125 0.125 0
0 0.25 0
0.125 0.25 0
0.25 0 0
0.375 0 0
0.25 0.125 0
0.375 0.125 0
0.375 0 0
0.5 0 0
0.375 0.125 0
0.5 0.125 0
0.375 0.125 0
0.5 0.125 0
0.375 0.25 0
0.5 0.25 0
0.25 0.125 0
0.375 0.125 0
0.25 0.25 0
0.375 0.25 0
0.25 0.25 0
0.375 0.25 0
0.25 0.375 0
0.375 0.375 0
0.375 0.25 0
0.5 0.25 0
0.375 0.375 0
0.5 0.375 0
0.375 0.375 0
0.5 0.375 0
0.375 0.5 0
0.5 0.5 0
0.25 0.375 0
0.375 0.375 0
0.25 0.5 0
0.375 0.5 0
0 0.25 0
0.125 0.25 0
0 0.375 0
0.125 0.375 0
0.125 0.25 0
0.25 0.25 0
0.125 0.375 0
0.25 0.375 0
0.125 0.375 0
0.25 0.375 0
0.125 0.5 0
0.25 0.5 0
0 0.375 0
0.125 0.375 0
0 0.5 0
0.125 0.5 0
0.5 0 0
0.625 0 0
0.5 0.125 0
0.625 0.125 0
0.625 0 0
0.75 0 0
0.625 0.125 0
0.75 0.125 0
0.625 0.125 0
0.75 0.125 0
0.625 0.25 0
0.75 0.25 0
0.5 0.125 0
0.625 0.125 0
0.5 0.25 0
0.625 0.25 0
0.75 0 0
0.875 0 0
0.75 0.125 0
0.875 0.125 0
0.875 0 0
1 0 0
0.875 0.125 0
1 0.125 0
0.875 0.125 0
1 0.125 0
0.875 0.25 0
1 0.25 0
0.75 0.125 0
0.875 0.125 0
0.75 0.25 0
0.875 0.25 0
0.75 0.25 0
0.875 0.25 0
0.75 0.375 0
0.875 0.375 0
0.875 0.25 0
1 0.25 0
0.875 0.375 0
1 0.375 0
0.875 0.375 0
1 0.375 0
0.875 0.5 0
1 0.5 0
0.75 0.375 0
0.875 0.375 0
0.75 0.5 0
0.875 0.5 0
0.5 0.25 0
0.625 0.25 0
0.5 0.375 0
0.625 0.375 0
0.625 0.25 0
0.75 0.25 0
0.625 0.375 0
0.75 0.375 0
0.625 0.375 0
0.75 0.375 0
0.625 0.5 0
0.75 0.5 0
0.5 0.375 0
0.625 0.375 0
0.5 0.5 0
0.625 0.5 0
0.5 0.5 0
0.625 0.5 0
0.5 0.625 0
0.625 0.625 0
0.625 0.5 0
0.75 0.5 0
0.625 0.625 0
0.75 0.625 0
0.625 0.625 0
0.75 0.625 0
0.625 0.75 0
0.75 0.75 0
0.5 0.625 0
0.625 0.625 0
0.5 0.75 0
0.625 0.75 0
0.75 0.5 0
0.875 0.5 0
0.75 0.625 0
0.875 0.625 0
0.875 0.5 0
1 0.5 0
0.875 0.625 0
1 0.625 0
0.875 0.625 0
1 0.625 0
0.875 0.75 0
1 0.75 0
0.75 0.625 0
0.875 0.625 0
0.75 0.75 0
0.875 0.75 0
0.75 0.75 0
0.875 0.75 0
0.75 0.875 0
0.875 0.875 0
0.875 0.75 0
1 0.75 0
0.875 0.875 0
1 0.875 0
0.875 0.875 0
1 0.875 0
0.875 1 0
1 1 0
0.75 0.875 0
0.875 0.875 0
0.75 1 0
0.875 1 0
0.5 0.75 0
0.625 0.75 0
0.5 0.875 0
0.625 0.875 0
0.625 0.75 0
0.75 0.75 0
0.625 0.875 0
0.75 0.875 0
0.625 0.875 0
0.75 0.875 0
0.625 1 0
0.75 1 0
0.5 0.875 0
0.625 0.875 0
0.5 1 0
0.625 1 0
0 0.5 0
0.125 0.5 0
0 0.625 0
0.125 0.625 0
0.125 0.5 0
0.25 0.5 0
0.125 0.625 0
0.25 0.625 0
0.125 0.625 0
0.25 0.625 0
0.125 0.75 0
0.25 0.75 0
0 0.625 0
0.125 0.625 0
0 0.75 0
0.125 0.75 0
0.25 0.5 0
0.375 0.5 0
0.25 0.625 0
0.375 0.625 0
0.375 0.5 0
0.5 0.5 0
0.375 0.625 0
0.5 0.625 0
0.375 0.625 0
0.5 0.625 0
0.375 0.75 0
0.5 0.75 0
0.25 0.625 0
0.375 0.625 0
0.25 0.75 0
0.375 0.75 0
0.25 0.75 0
0.375 0.75 0
0.25 0.875 0
0.375 0.875 0
0.375 0.75 0
0.5 0.75 0
0.375 0.875 0
0.5 0.875 0
0.375 0.875 0
0.5 0.875 0
0.375 1 0
0.5 1 0
0.25 0.875 0
0.375 0.875 0
0.25 1 0
0.375 1 0
0 0.75 0
0.125 0.75 0
0 0.875 0
0.125 0.875 0
0.125 0.75 0
0.25 0.75 0
0.125 0.875 0
0.25 0.875 0
0.125 0.875 0
0.25 0.875 0
0.125 1 0
0.25 1 0
0 0.875 0
0.125 0.875 0
0 1 0
0.125 1 0
1 0 0
1.125 0 0
1 0.125 0
1.125 0.125 0
1.125 0 0
1.25 0 0
1.125 0.125 0
1.25 0.125 0
1.125 0.125 0
1.25 0.125 0
1.125 0.25 0
1.25 0.25 0
1 0.125 0
1.125 0.125 0
1 0.25 0
1.125 0.25 0
1.25 0 0
1.375 0 0
1.25 0.125 0
1.375 0.125 0
1.375 0 0
1.5 0 0
1.375 0.125 0
1.5 0.125 0
1.375 0.125 0
1.5 0.125 0
1.375 0.25 0
1.5 0.25 0
1.25 0.125 0
1.375 0.125 0
1.25 0.25 0
1.375 0.25 0
1.25 0.25 0
1.375 0.25 0
1.25 0.375 0
1.375 0.375 0
1.375 0.25 0
1.5 0.25 0
1.375 0.375 0
1.5 0.375 0
1.375 0.375 0
1.5 0.375 0
1.375 0.5 0
1.5 0.5 0
1.25 0.375 0
1.375 0.375 0
1.25 0.5 0
1.375 0.5 0
1 0.25 0
1.125 0.25 0
1 0.375 0
1.125 0.375 0
1.125 0.25 0
1.25 0.25 0
1.125 0.375 0
1.25 0.375 0
1.125 0.375 0
1.25 0.375 0
1.125 0.5 0
1.25 0.5 0
1 0.375 0
1.125 0.375 0
1 0.5 0
1.125 0.5 0
1.5 0 0
1.625 0 0
1.5 0.125 0
1.625 0.125 0
1.625 0 0
1.75 0 0
1.625 0.125 0
1.75 0.125 0
1.625 0.125 0
1.75 0.125 0
1.625 0.25 0
1.75 0.25 0
1.5 0.125 0
1.625 0.125 0
1.5 0.25 0
1.625 0.25 0
1.75 0 0
1.875 0 0
1.75 0.125 0
1.875 0.125 0
1.875 0 0
2 0 0
1.875 0.125 0
2 0.125 0
1.875 0.125 0
2 0.125 0
1.875 0.25 0
2 0.25 0
1.75 0.125 0
1.875 0.125 0
1.75 0.25 0
1.875 0.25 0
1.75 0.25 0
1.875 0.25 0
1.75 0.375 0
1.875 0.375 0
1.875 0.25 0
2 0.25 0
1.875 0.375 0
2 0.375 0
1.875 0.375 0
2 0.375 0
1.875 0.5 0
2 0.5 0
1.75 0.375 0
1.875 0.375 0
1.75 0.5 0
1.875 0.5 0
1.5 0.25 0
1.625 0.25 0
1.5 0.375 0
1.625 0.375 0
1.625 0.25 0
1.75 0.25 0
1.625 0.375 0
1.75 0.375 0
1.625 0.375 0
1.75 0.375 0
1.625 0.5 0
1.75 0.5 0
1.5 0.375 0
1.625 0.375 0
1.5 0.5 0
1.625 0.5 0
1.5 0.5 0
1.625 0.5 0
1.5 0.625 0
1.625 0.625 0
1.625 0.5 0
1.75 0.5 0
1.625 0.625 0
1.75 0.625 0
1.625 0.625 0
1.75 0.625 0
1.625 0.75 0
1.75 0.75 0
1.5 0.625 0
1.625 0.625 0
1.5 0.75 0
1.625 0.75 0
1.75 0.5 0
1.875 0.5 0
1.75 0.625 0
1.875 0.625 0
1.875 0.5 0
2 0.5 0
1.875 0.625 0
2 0.625 0
1.875 0.625 0
2 0.625 0
1.875 0.75 0
2 0.75 0
1.75 0.625 0
1.875 0.625 0
1.75 0.75 0
1.875 0.75 0
1.75 0.75 0
1.875 0.75 0
1.75 0.875 0
1.875 0.875 0
1.875 0.75 0
2 0.75 0
1.875 0.875 0
2 0.875 0
1.875 0.875 0
2 0.875 0
1.875 1 0
2 1 0
1.75 0.875 0
1.875 0.875 0
1.75 1 0
1.875 1 0
1.5 0.75 0
1.625 0.75 0
1.5 0.875 0
1.625 0.875 0
1.625 0.75 0
1.75 0.75 0
1.625 0.875 0
1.75 0.875 0
1.625 0.875 0
1.75 0.875 0
1.625 1 0
1.75 1 0
1.5 0.875 0
1.625 0.875 0
1.5 1 0
1.625 1 0
1 0.5 0
1.125 0.5 0
1 0.625 0
1.125 0.625 0
1.125 0.5 0
1.25 0.5 0
1.125 0.625 0
1.25 0.625 0
1.125 0.625 0
1.25 0.625 0
1.125 0.75 0
1.25 0.75 0
1 0.625 0
1.125 0.625 0
1 0.75 0
1.125 0.75 0
1.25 0.5 0
1.375 0.5 0
1.25 0.625 0
1.375 0.625 0
1.375 0.5 0
1.5 0.5 0
1.375 0.625 0
1.5 0.625 0
1.375 0.625 0
1.5 0.625 0
1.375 0.75 0
1.5 0.75 0
1.25 0.625 0
1.375 0.625 0
1.25 0.75 0
1.375 0.75 0
1.25 0.75 0
1.375 0.75 0
1.25 0.875 0
1.375 0.875 0
1.375 0.75 0
1.5 0.75 0
1.375 0.875 0
1.5 0.875 0
1.375 0.875 0
1.5 0.875 0
1.375 1 0
1.5 1 0
1.25 0.875 0
1.375 0.875 0
1.25 1 0
1.375 1 0
1 0.75 0
1.125 0.75 0
1 0.875 0
1.125 0.875 0
1.125 0.75 0
1.25 0.75 0
1.125 0.875 0
1.25 0.875 0
1.125 0.875 0
1.25 0.875 0
1.125 1 0
1.25 1 0
1 0.875 0
1.125 0.875 0
1 1 0
1.125 1 0
2 0 0
2.125 0 0
2 0.125 0
2.125 0.125 0
2.125 0 0
2.25 0 0
2.125 0.125 0
2.25 0.125 0
2.125 0.125 0
2.25 0.125 0
2.125 0.25 0
2.25 0.25 0
2 0.125 0
2.125 0.125 0
2 0.25 0
2.125 0.25 0
2.25 0 0
2.375 0 0
2.25 0.125 0
2.375 0.125 0
2.375 0 0
2.5 0 0
2.375 0.125 0
2.5 0.125 0
2.375 0.125 0
2.5 0.125 0
2.375 0.25 0
2.5 0.25 0
2.25 0.125 0
2.375 0.125 0
2.25 0.25 0
2.375 0.25 0
2.25 0.25 0
2.375 0.25 0
2.25 0.375 0
2.375 0.375 0
2.375 0.25 0
2.5 0.25 0
2.375 0.375 0
2.5 0.375 0
2.375 0.375 0
2.5 0.375 0
2.375 0.5 0
2.5 0.5 0
2.25 0.375 0
2.375 0.375 0
2.25 0.5 0
2.375 0.5 0
2 0.25 0
2.125 0.25 0
2 0.375 0
2.125 0.375 0
2.125 0.25 0
2.25 0.25 0
2.125 0.375 0
2.25 0.375 0
2.125 0.375 0
2.25 0.375 0
2.125 0.5 0
2.25 0.5 0
2 0.375 0
2.125 0.375 0
2 0.5 0
2.125 0.5 0
2.5 0 0
2.625 0 0
2.5 0.125 0
2.625 0.125 0
2.625 0 0
2.75 0 0
2.625 0.125 0
2.75 0.125 0
2.625 0.125 0
2.75 0.125 0
2.625 0.25 0
2.75 0.25 0
2.5 0.125 0
2.625 0.125 0
2.5 0.25 0
2.625 0.25 0
2.75 0 0
2.875 0 0
2.75 0.125 0
2.875 0.125 0
2.875 0 0
3 0 0
2.875 0.125 0
3 0.125 0
2.875 0.125 0
3 0.125 0
2.875 0.25 0
3 0.25 0
2.75 0.125 0
2.875 0.125 0
2.75 0.25 0
2.875 0.25 0
2.75 0.25 0
2.875 0.25 0
2.75 0.375 0
2.875 0.375 0
2.875 0.25 0
3 0.25 0
2.875 0.375 0
3 0.375 0
2.875 0.375 0
3 0.375 0
2.875 0.5 0
3 0.5 0
2.75 0.375 0
2.875 0.375 0
2.75 0.5 0
2.875 0.5 0
2.5 0.25 0
2.625 0.25 0
2.5 0.375 0
2.625 0.375 0
2.625 0.25 0
2.75 0.25 0
2.625 0.375 0
2.75 0.375 0
2.625 0.375 0
2.75 0.375 0
2.625 0.5 0
2.75 0.5 0
2.5 0.375 0
2.625 0.375 0
2.5 0.5 0
2.625 0.5 0
2.5 0.5 0
2.625 0.5 0
2.5 0.625 0
2.625 0.625 0
2.625 0.5 0
2.75 0.5 0
2.625 0.625 0
2.75 0.625 0
2.625 0.625 0
2.75 0.625 0
2.625 0.75 0
2.75 0.75 0
2.5 0.625 0
2.625 0.625 0
2.5 0.75 0
2.625 0.75 0
2.75 0.5 0
2.875 0.5 0
2.75 0.625 0
2.875 0.625 0
2.875 0.5 0
3 0.5 0
2.875 0.625 0
3 0.625 0
2.875 0.625 0
3 0.625 0
2.875 0.75 0
3 0.75 0
2.75 0.625 0
2.875 0.625 0
2.75 0.75 0
2.875 0.75 0
2.75 0.75 0
2.875 0.75 0
2.75 0.875 0
2.875 0.875 0
2.875 0.75 0
3 0.75 0
2.875 0.875 0
3 0.875 0
2.875 0.875 0
3 0.875 0
2.875 1 0
3 1 0
2.75 0.875 0
2.875 0.875 0
2.75 1 0
2.875 1 0
2.5 0.75 0
2.625 0.75 0
2.5 0.875 0
2.625 0.875 0
2.625 0.75 0
2.75 0.75 0
2.625 0.875 0
2.75 0.875 0
2.625 0.875 0
2.75 0.875 0
2.625 1 0
2.75 1 0
2.5 0.875 0
2.625 0.875 0
2.5 1 0
2.625 1 0
2 0.5 0
2.125 0.5 0
2 0.625 0
2.125 0.625 0
2.125 0.5 0
2.25 0.5 0
2.125 0.625 0
2.25 0.625 0
2.125 0.625 0
2.25 0.625 0
2.125 0.75 0
2.25 0.75 0
2 0.625 0
2.125 0.625 0
2 0.75 0
2.125 0.75 0
2.25 0.5 0
2.375 0.5 0
2.25 0.625 0
2.375 0.625 0
2.375 0.5 0
2.5 0.5 0
2.375 0.625 0
2.5 0.625 0
2.375 0.625 0
2.5 0.625 0
2.375 0.75 0
2.5 0.75 0
2.25 0.625 0
2.375 0.625 0
2.25 0.75 0
2.375 0.75 0
2.25 0.75 0
2.375 0.75 0
2.25 0.875 0
2.375 0.875 0
2.375 0.75 0
2.5 0.75 0
2.375 0.875 0
2.5 0.875 0
2.375 0.875 0
2.5 0.875 0
2.375 1 0
2.5 1 0
2.25 0.875 0
2.375 0.875 0
2.25 1 0
2.375 1 0
2 0.75 0
2.125 0.75 0
2 0.875 0
2.125 0.875 0
2.125 0.75 0
2.25 0.75 0
2.125 0.875 0
2.25 0.875 0
2.125 0.875 0
2.25 0.875 0
2.125 1 0
2.25 1 0
2 0.875 0
2.125 0.875 0
2 1 0
2.125 1 0
3 0 0
3.125 0 0
3 0.125 0
3.125 0.125 0
3.125 0 0
3.25 0 0
3.125 0.125 0
3.25 0.125 0
3.125 0.125 0
3.25 0.125 0
3.125 0.25 0
3.25 0.25 0
3 0.125 0
3.125 0.125 0
3 0.25 0
3.125 0.25 0
3.25 0 0
3.375 0 0
3.25 0.125 0
3.375 0.125 0
3.375 0 0
3.5 0 0
3.375 0.125 0
3.5 0.125 0
3.375 0.125 0
3.5 0.125 0
3.375 0.25 0
3.5 0.25 0
3.25 0.125 0
3.375 0.125 0
3.25 0.25 0
3.375 0.25 0
3.25 0.25 0
3.375 0.25 0
3.25 0.375 0
3.375 0.375 0
3.375 0.25 0
3.5 0.25 0
3.375 0.375 0
3.5 0.375 0
3.375 0.375 0
3.5 0.375 0
3.375 0.5 0
3.5 0.5 0
3.25 0.375 0
3.375 0.375 0
3.25 0.5 0
[...]
<CellData Scalars="attribute">
<DataArray type="Int32" Name="attribute" format="ascii">
1
1
1
1
1
1
1
1
1
1
1
1
1
1
1
1
1
1
1
1
1
1
1
1
1
1
1
1
1
1
1
1
1
1
1
1
1
1
1
1
1
1
1
1
1
1
1
1
1
1
1
1
1
1
1
1
1
1
1
1
1
1
1
1
1
1
1
1
1
1
1
1
1
1
1
1
1
1
1
1
1
1
1
1
1
1
1
1
1
1
1
1
1
1
1
1
1
1
1
1
1
1
1
1
1
1
1
1
1
1
1
1
1
1
1
1
1
1
1
1
1
1
1
1
1
1
1
1
1
1
1
1
1
1
1
1
1
1
1
1
1
1
1
1
1
1
1
1
1
1
1
1
1
1
1
1
1
1
1
1
1
1
1
1
1
1
1
1
1
1
1
1
1
1
1
1
1
1
1
1
1
1
1
1
1
1
1
1
1
1
1
1
1
1
1
1
1
1
1
1
1
1
1
1
1
1
1
1
1
1
1
1
1
1
1
1
1
1
1
1
1
1
1
1
1
1
1
1
1
1
1
1
1
1
1
1
1
1
1
1
1
1
1
1
1
1
1
1
1
1
1
1
1
1
1
1
2
2
2
2
2
2
2
2
2
2
2
2
2
2
2
2
2
2
2
2
2
2
2
2
2
2
2
2
2
2
2
2
2
2
2
2
2
2
2
2
2
2
2
2
2
2
2
2
2
2
2
2
2
2
2
2
2
2
2
2
2
2
2
2
2
2
2
2
2
2
2
2
2
2
2
2
2
2
2
2
2
2
2
2
2
2
2
2
2
2
2
2
2
2
2
2
2
2
2
2
2
2
2
2
2
2
2
2
2
2
2
2
2
2
2
2
2
2
2
2
2
2
2
2
2
2
2
2
2
2
2
2
2
2
2
2
2
2
2
2
2
2
2
2
2
2
2
2
2
2
2
2
2
2
2
2
2
2
2
2
2
2
2
2
2
2
2
2
2
2
2
2
2
2
2
2
2
2
2
2
2
2
2
2
2
2
2
2
2
2
2
2
2
2
2
2
2
2
2
2
2
2
2
2
2
2
2
2
2
2
2
2
2
2
2
2
2
2
2
2
2
2
2
2
2
2
2
2
2
2
2
2
2
2
2
2
2
2
2
2
2
2
2
2
2
2
2
2
2
2
2
2
2
2
2
2
</DataArray>
</CellData>
<PointData >
<DataArray type="Float64" Name="Pressure" NumberOfComponents="1" format="ascii" >
-0.000192116
-1.61394e-07
-0.000314377
-2.67165e-07
-1.61394e-07
5.67816e-12
-2.67165e-07
9.83297e-12
-2.67165e-07
9.83297e-12
-1.7936e-07
6.67733e-12
-0.000314377
-2.67165e-07
-0.000209587
-1.7936e-07
5.67816e-12
-1.28189e-16
9.83297e-12
-2.28867e-16
-1.28189e-16
2.94966e-21
-2.28867e-16
5.4598e-21
-2.28867e-16
5.4598e-21
-1.59354e-16
3.90451e-21
9.83297e-12
-2.28867e-16
6.67733e-12
-1.59354e-16
6.67733e-12
-1.59354e-16
3.42185e-12
-8.14278e-17
-1.59354e-16
3.90451e-21
-8.14278e-17
1.99725e-21
-8.14278e-17
1.99725e-21
-2.69474e-18
6.33465e-23
3.42185e-12
-8.14278e-17
1.20592e-13
-2.69474e-18
-0.000209587
-1.7936e-07
-0.000104795
-9.10779e-08
-1.7936e-07
6.67733e-12
-9.10779e-08
3.42185e-12
-9.10779e-08
3.42185e-12
-2.01709e-09
1.20592e-13
-0.000104795
-9.10779e-08
-2.48217e-09
-2.01709e-09
2.94966e-21
-3.5277e-26
5.4598e-21
-6.76731e-26
-3.5277e-26
7.31343e-31
-6.76731e-26
1.41076e-30
-6.76731e-26
1.41076e-30
-5.01305e-26
1.06003e-30
5.4598e-21
-6.76731e-26
3.90451e-21
-5.01305e-26
7.31343e-31
-3.70026e-36
1.41076e-30
-7.86895e-36
-3.70026e-36
1.17324e-40
-7.86895e-36
2.29709e-40
-7.86895e-36
2.29709e-40
-6.36152e-36
1.77879e-40
1.41076e-30
-7.86895e-36
1.06003e-30
-6.36152e-36
1.06003e-30
-6.36152e-36
5.51086e-31
-3.35418e-36
-6.36152e-36
1.77879e-40
-3.35418e-36
9.44626e-41
-3.35418e-36
9.44626e-41
-9.66731e-38
2.40504e-42
5.51086e-31
-3.35418e-36
1.58047e-32
-9.66731e-38
3.90451e-21
-5.01305e-26
1.99725e-21
-2.58005e-26
-5.01305e-26
1.06003e-30
-2.58005e-26
5.51086e-31
-2.58005e-26
5.51086e-31
-7.8782e-28
1.58047e-32
1.99725e-21
-2.58005e-26
6.33465e-23
-7.8782e-28
6.33465e-23
-7.8782e-28
-1.89752e-21
2.45725e-26
-7.8782e-28
1.58047e-32
2.45725e-26
-5.26973e-31
2.45725e-26
-5.26973e-31
4.99508e-26
-1.05722e-30
-1.89752e-21
2.45725e-26
-3.88616e-21
4.99508e-26
1.58047e-32
-9.66731e-38
-5.26973e-31
3.20772e-36
-9.66731e-38
2.40504e-42
3.20772e-36
-9.08969e-41
3.20772e-36
-9.08969e-41
6.34436e-36
-1.77591e-40
-5.26973e-31
3.20772e-36
-1.05722e-30
6.34436e-36
-1.05722e-30
6.34436e-36
-1.43327e-30
7.9888e-36
6.34436e-36
-1.77591e-40
7.9888e-36
-2.32923e-40
7.9888e-36
-2.32923e-40
3.78101e-36
-1.19595e-40
-1.43327e-30
7.9888e-36
-7.47802e-31
3.78101e-36
-3.88616e-21
4.99508e-26
-5.55711e-21
6.88248e-26
4.99508e-26
-1.05722e-30
6.88248e-26
-1.43327e-30
6.88248e-26
-1.43327e-30
3.61331e-26
-7.47802e-31
-5.55711e-21
6.88248e-26
-3.0272e-21
3.61331e-26
-2.48217e-09
-2.01709e-09
0.000104791
8.78225e-08
-2.01709e-09
1.20592e-13
8.78225e-08
-3.22766e-12
8.78225e-08
-3.22766e-12
1.78441e-07
-6.62397e-12
0.000104791
8.78225e-08
0.000209585
1.78441e-07
1.20592e-13
-2.69474e-18
-3.22766e-12
7.71319e-17
-2.69474e-18
6.33465e-23
7.71319e-17
-1.89752e-21
7.71319e-17
-1.89752e-21
1.58355e-16
-3.88616e-21
-3.22766e-12
7.71319e-17
-6.62397e-12
1.58355e-16
-6.62397e-12
1.58355e-16
-1.00148e-11
2.33124e-16
1.58355e-16
-3.88616e-21
2.33124e-16
-5.55711e-21
2.33124e-16
-5.55711e-21
1.31814e-16
-3.0272e-21
-1.00148e-11
2.33124e-16
-5.86442e-12
1.31814e-16
0.000209585
1.78441e-07
0.000314381
2.70172e-07
1.78441e-07
-6.62397e-12
2.70172e-07
-1.00148e-11
2.70172e-07
-1.00148e-11
1.6458e-07
-5.86442e-12
0.000314381
2.70172e-07
0.00019212
1.6458e-07
1.17324e-40
9.95495e-47
2.29709e-40
3.53774e-47
9.95495e-47
1.46189e-50
3.53774e-47
2.83683e-50
3.53774e-47
2.83683e-50
-6.55615e-47
2.21396e-50
2.29709e-40
3.53774e-47
1.77879e-40
-6.55615e-47
1.46189e-50
7.64381e-56
2.83683e-50
1.29345e-55
7.64381e-56
1.50764e-60
1.29345e-55
2.87301e-60
1.29345e-55
2.87301e-60
8.92642e-56
2.23006e-60
2.83683e-50
1.29345e-55
2.21396e-50
8.92642e-56
2.21396e-50
8.92642e-56
1.1932e-50
4.65264e-56
8.92642e-56
2.23006e-60
4.65264e-56
1.20917e-60
4.65264e-56
1.20917e-60
7.82055e-58
2.30011e-62
1.1932e-50
4.65264e-56
2.64351e-52
7.82055e-58
1.77879e-40
-6.55615e-47
9.44626e-41
-4.44145e-47
-6.55615e-47
2.21396e-50
-4.44145e-47
1.1932e-50
-4.44145e-47
1.1932e-50
-2.49448e-48
2.64351e-52
9.44626e-41
-4.44145e-47
2.40504e-42
-2.49448e-48
1.50764e-60
1.09912e-65
2.87301e-60
1.97017e-65
1.09912e-65
1.26225e-70
1.97017e-65
2.37082e-70
1.97017e-65
2.37082e-70
1.44743e-65
1.8276e-70
2.87301e-60
1.97017e-65
2.23006e-60
1.44743e-65
1.26225e-70
9.59614e-76
2.37082e-70
1.75213e-75
9.59614e-76
8.34215e-81
1.75213e-75
1.55397e-80
1.75213e-75
1.55397e-80
1.31618e-75
1.19333e-80
2.37082e-70
1.75213e-75
1.8276e-70
1.31618e-75
1.8276e-70
1.31618e-75
9.92315e-71
7.07616e-76
1.31618e-75
1.19333e-80
7.07616e-76
6.4807e-81
7.07616e-76
6.4807e-81
1.0177e-77
9.0785e-83
9.92315e-71
7.07616e-76
1.61659e-72
1.0177e-77
2.23006e-60
1.44743e-65
1.20917e-60
7.70695e-66
1.44743e-65
1.8276e-70
7.70695e-66
9.92315e-71
7.70695e-66
9.92315e-71
1.23833e-67
1.61659e-72
1.20917e-60
7.70695e-66
2.30011e-62
1.23833e-67
2.30011e-62
1.23833e-67
-1.17606e-60
-7.53173e-66
1.23833e-67
1.61659e-72
-7.53173e-66
-9.6921e-71
-7.53173e-66
-9.6921e-71
-1.4479e-65
-1.82697e-70
-1.17606e-60
-7.53173e-66
-2.22866e-60
-1.4479e-65
1.61659e-72
1.0177e-77
-9.6921e-71
-6.93223e-76
1.0177e-77
9.0785e-83
-6.93223e-76
-6.35152e-81
-6.93223e-76
-6.35152e-81
-1.31638e-75
-1.19312e-80
-9.6921e-71
-6.93223e-76
-1.82697e-70
-1.31638e-75
-1.82697e-70
-1.31638e-75
-2.39263e-70
-1.7673e-75
-1.31638e-75
-1.19312e-80
-1.7673e-75
-1.56645e-80
-1.7673e-75
-1.56645e-80
-9.70425e-76
-8.43067e-81
-2.39263e-70
-1.7673e-75
-1.27771e-70
-9.70425e-76
-2.22866e-60
-1.4479e-65
-2.90335e-60
-1.98971e-65
-1.4479e-65
-1.82697e-70
-1.98971e-65
-2.39263e-70
-1.98971e-65
-2.39263e-70
-1.11321e-65
-1.27771e-70
-2.90335e-60
-1.98971e-65
-1.52906e-60
-1.11321e-65
2.40504e-42
-2.49448e-48
-9.08969e-41
4.05122e-47
-2.49448e-48
2.64351e-52
4.05122e-47
-1.15473e-50
4.05122e-47
-1.15473e-50
6.43209e-47
-2.21167e-50
-9.08969e-41
4.05122e-47
-1.77591e-40
6.43209e-47
2.64351e-52
7.82055e-58
-1.15473e-50
-4.54252e-56
7.82055e-58
2.30011e-62
-4.54252e-56
-1.17606e-60
-4.54252e-56
-1.17606e-60
-8.93471e-56
-2.22866e-60
-1.15473e-50
-4.54252e-56
-2.21167e-50
-8.93471e-56
-2.21167e-50
-8.93471e-56
-2.87132e-50
-1.30805e-55
-8.93471e-56
-2.22866e-60
-1.30805e-55
-2.90335e-60
-1.30805e-55
-2.90335e-60
-7.75341e-56
-1.52906e-60
-2.87132e-50
-1.30805e-55
-1.48612e-50
-7.75341e-56
-1.77591e-40
6.43209e-47
-2.32923e-40
-3.5564e-47
6.43209e-47
-2.21167e-50
-3.5564e-47
-2.87132e-50
-3.5564e-47
-2.87132e-50
-1.0053e-46
-1.48612e-50
-2.32923e-40
-3.5564e-47
-1.19595e-40
-1.0053e-46
8.34215e-81
5.95841e-86
1.55397e-80
1.09597e-85
5.95841e-86
4.31536e-91
1.09597e-85
8.00574e-91
1.09597e-85
8.00574e-91
8.32019e-86
6.14046e-91
1.55397e-80
1.09597e-85
1.19333e-80
8.32019e-86
4.31536e-91
2.79495e-96
8.00574e-91
5.15641e-96
2.79495e-96
1.75688e-101
5.15641e-96
3.25288e-101
5.15641e-96
3.25288e-101
3.93637e-96
2.49532e-101
8.00574e-91
5.15641e-96
6.14046e-91
3.93637e-96
6.14046e-91
3.93637e-96
3.33546e-91
2.13358e-96
3.93637e-96
2.49532e-101
2.13358e-96
1.35587e-101
2.13358e-96
1.35587e-101
2.37267e-98
1.42459e-103
3.33546e-91
2.13358e-96
4.03846e-93
2.37267e-98
1.19333e-80
8.32019e-86
6.4807e-81
4.49667e-86
8.32019e-86
6.14046e-91
4.49667e-86
3.33546e-91
4.49667e-86
3.33546e-91
5.70267e-88
4.03846e-93
6.4807e-81
4.49667e-86
9.0785e-83
5.70267e-88
1.75688e-101
1.02241e-106
3.25288e-101
1.88839e-106
1.02241e-106
5.68949e-112
1.88839e-106
1.05234e-111
1.88839e-106
1.05234e-111
1.44608e-106
8.07769e-112
3.25288e-101
1.88839e-106
2.49532e-101
1.44608e-106
5.68949e-112
2.97568e-117
1.05234e-111
5.49779e-117
2.97568e-117
1.48213e-122
5.49779e-117
2.73974e-122
5.49779e-117
2.73974e-122
4.2179e-117
2.10447e-122
1.05234e-111
5.49779e-117
8.07769e-112
4.2179e-117
8.07769e-112
4.2179e-117
4.39042e-112
2.29174e-117
4.2179e-117
2.10447e-122
2.29174e-117
1.14407e-122
2.29174e-117
1.14407e-122
1.94866e-119
9.11744e-125
4.39042e-112
2.29174e-117
4.0139e-114
1.94866e-119
2.49532e-101
1.44608e-106
1.35587e-101
7.85045e-107
1.44608e-106
8.07769e-112
7.85045e-107
4.39042e-112
7.85045e-107
4.39042e-112
7.63737e-109
4.0139e-114
1.35587e-101
7.85045e-107
1.42459e-103
7.63737e-109
1.42459e-103
7.63737e-109
-1.33568e-101
-7.74246e-107
7.63737e-109
4.0139e-114
-7.74246e-107
-4.33359e-112
-7.74246e-107
-4.33359e-112
-1.4461e-106
-8.07747e-112
-1.33568e-101
-7.74246e-107
-2.49521e-101
-1.4461e-106
4.0139e-114
1.94866e-119
-4.33359e-112
-2.26418e-117
1.94866e-119
9.11744e-125
-2.26418e-117
-1.13117e-122
-2.26418e-117
-1.13117e-122
-4.21789e-117
-2.10443e-122
-4.33359e-112
-2.26418e-117
-8.07747e-112
-4.21789e-117
-8.07747e-112
-4.21789e-117
-1.05797e-111
-5.52527e-117
-4.21789e-117
-2.10443e-122
-5.52527e-117
-2.75251e-122
-5.52527e-117
-2.75251e-122
-2.99513e-117
-1.49118e-122
-1.05797e-111
-5.52527e-117
-5.72932e-112
-2.99513e-117
-2.49521e-101
-1.4461e-106
-3.27279e-101
-1.89921e-106
-1.4461e-106
-8.07747e-112
-1.89921e-106
-1.05797e-111
-1.89921e-106
-1.05797e-111
-1.03007e-106
-5.72932e-112
-3.27279e-101
-1.89921e-106
-1.77099e-101
-1.03007e-106
9.0785e-83
5.70267e-88
-6.35152e-81
-4.41605e-86
5.70267e-88
4.03846e-93
-4.41605e-86
-3.27815e-91
-4.41605e-86
-3.27815e-91
-8.32083e-86
-6.13992e-91
-6.35152e-81
-4.41605e-86
-1.19312e-80
-8.32083e-86
4.03846e-93
2.37267e-98
-3.27815e-91
-2.10004e-96
2.37267e-98
1.42459e-103
-2.10004e-96
-1.33568e-101
-2.10004e-96
-1.33568e-101
-3.93651e-96
-2.49521e-101
-3.27815e-91
-2.10004e-96
-6.13992e-91
-3.93651e-96
-6.13992e-91
-3.93651e-96
-8.06188e-91
-5.19033e-96
-3.93651e-96
-2.49521e-101
-5.19033e-96
-3.27279e-101
-5.19033e-96
-3.27279e-101
-2.81897e-96
-1.77099e-101
-8.06188e-91
-5.19033e-96
-4.35518e-91
-2.81897e-96
-1.19312e-80
-8.32083e-86
-1.56645e-80
-1.10424e-85
-8.32083e-86
-6.13992e-91
-1.10424e-85
-8.06188e-91
-1.10424e-85
-8.06188e-91
-6.01709e-86
-4.35518e-91
-1.56645e-80
-1.10424e-85
-8.43067e-81
-6.01709e-86
1.48213e-122
6.98862e-128
2.73974e-122
1.29114e-127
6.98862e-128
3.13732e-133
1.29114e-127
5.79688e-133
1.29114e-127
5.79688e-133
9.91729e-128
4.45555e-133
2.73974e-122
1.29114e-127
2.10447e-122
9.91729e-128
3.13732e-133
1.33853e-138
5.79688e-133
2.47245e-138
1.33853e-138
5.44184e-144
2.47245e-138
1.00514e-143
2.47245e-138
1.00514e-143
1.90058e-138
7.72965e-144
5.79688e-133
2.47245e-138
4.45555e-133
1.90058e-138
4.45555e-133
1.90058e-138
2.4225e-133
1.03329e-138
1.90058e-138
7.72965e-144
1.03329e-138
4.20279e-144
1.03329e-138
4.20279e-144
6.7094e-141
2.55306e-146
2.4225e-133
1.03329e-138
1.68482e-135
6.7094e-141
2.10447e-122
9.91729e-128
1.14407e-122
5.39073e-128
9.91729e-128
4.45555e-133
5.39073e-128
2.4225e-133
5.39073e-128
2.4225e-133
4.00535e-130
1.68482e-135
1.14407e-122
5.39073e-128
9.11744e-125
4.00535e-130
5.44184e-144
2.10762e-149
1.00514e-143
3.89208e-149
2.10762e-149
7.78671e-155
3.89208e-149
1.43781e-154
3.89208e-149
1.43781e-154
2.99351e-149
1.10614e-154
1.00514e-143
3.89208e-149
7.72965e-144
2.99351e-149
7.78671e-155
2.74476e-160
1.43781e-154
5.06734e-160
2.74476e-160
9.23759e-166
5.06734e-160
1.70524e-165
5.06734e-160
1.70524e-165
3.899e-160
1.3123e-165
1.43781e-154
5.06734e-160
1.10614e-154
3.899e-160
1.10614e-154
3.899e-160
6.01421e-155
2.11983e-160
3.899e-160
1.3123e-165
2.11983e-160
7.13467e-166
2.11983e-160
7.13467e-166
1.05217e-162
3.31257e-168
6.01421e-155
2.11983e-160
3.19313e-157
1.05217e-162
7.72965e-144
2.99351e-149
4.20279e-144
1.62757e-149
2.99351e-149
1.10614e-154
1.62757e-149
6.01421e-155
1.62757e-149
6.01421e-155
9.23817e-152
3.19313e-157
4.20279e-144
1.62757e-149
2.55306e-146
9.23817e-152
2.55306e-146
9.23817e-152
-4.16664e-144
-1.61449e-149
9.23817e-152
3.19313e-157
-1.61449e-149
-5.96897e-155
-1.61449e-149
-5.96897e-155
-2.99344e-149
-1.10611e-154
-4.16664e-144
-1.61449e-149
-7.72946e-144
-2.99344e-149
3.19313e-157
1.05217e-162
-5.96897e-155
-2.10492e-160
1.05217e-162
3.31257e-168
-2.10492e-160
-7.08771e-166
-2.10492e-160
-7.08771e-166
-3.89888e-160
-1.31226e-165
-5.96897e-155
-2.10492e-160
-1.10611e-154
-3.89888e-160
-1.10611e-154
-3.89888e-160
-1.44226e-154
-5.08197e-160
-3.89888e-160
-1.31226e-165
-5.08197e-160
-1.70983e-165
-5.08197e-160
-1.70983e-165
-2.75511e-160
-9.27013e-166
-1.44226e-154
-5.08197e-160
-7.81818e-155
-2.75511e-160
-7.72946e-144
-2.99344e-149
-1.00871e-143
-3.90497e-149
-2.99344e-149
-1.10611e-154
-3.90497e-149
-1.44226e-154
-3.90497e-149
-1.44226e-154
-2.11674e-149
-7.81818e-155
-1.00871e-143
-3.90497e-149
-5.46708e-144
-2.11674e-149
9.11744e-125
4.00535e-130
-1.13117e-122
-5.33406e-128
4.00535e-130
1.68482e-135
-5.33406e-128
-2.39865e-133
-5.33406e-128
-2.39865e-133
-9.91717e-128
-4.45545e-133
-1.13117e-122
-5.33406e-128
-2.10443e-122
-9.91717e-128
1.68482e-135
6.7094e-141
-2.39865e-133
-1.0238e-138
6.7094e-141
2.55306e-146
-1.0238e-138
-4.16664e-144
-1.0238e-138
-4.16664e-144
-1.90055e-138
-7.72946e-144
-2.39865e-133
-1.0238e-138
-4.45545e-133
-1.90055e-138
-4.45545e-133
-1.90055e-138
-5.82044e-133
-2.48184e-138
-1.90055e-138
-7.72946e-144
-2.48184e-138
-1.00871e-143
-2.48184e-138
-1.00871e-143
-1.34518e-138
-5.46708e-144
-5.82044e-133
-2.48184e-138
-3.15401e-133
-1.34518e-138
-2.10443e-122
-9.91717e-128
-2.75251e-122
-1.29677e-127
-9.91717e-128
-4.45545e-133
-1.29677e-127
-5.82044e-133
-1.29677e-127
-5.82044e-133
-7.02844e-128
-3.15401e-133
-2.75251e-122
-1.29677e-127
-1.49118e-122
-7.02844e-128
9.23759e-166
2.96899e-171
1.70524e-165
5.47994e-171
2.96899e-171
9.11613e-177
5.47994e-171
1.68239e-176
5.47994e-171
1.68239e-176
4.21772e-171
1.29505e-176
1.70524e-165
5.47994e-171
1.3123e-165
4.21772e-171
9.11613e-177
2.67424e-182
1.68239e-176
4.93473e-182
2.67424e-182
7.49558e-188
4.93473e-182
1.383e-187
4.93473e-182
1.383e-187
3.79897e-182
1.0648e-187
1.68239e-176
4.93473e-182
1.29505e-176
3.79897e-182
1.29505e-176
3.79897e-182
7.04023e-177
2.06512e-182
3.79897e-182
1.0648e-187
2.06512e-182
5.78796e-188
2.06512e-182
5.78796e-188
7.8479e-185
2.05817e-190
7.04023e-177
2.06512e-182
2.8599e-179
7.8479e-185
1.3123e-165
4.21772e-171
7.13467e-166
2.29296e-171
4.21772e-171
1.29505e-176
2.29296e-171
7.04023e-177
2.29296e-171
7.04023e-177
9.95629e-174
2.8599e-179
7.13467e-166
2.29296e-171
3.31257e-168
9.95629e-174
7.49558e-188
2.00711e-193
1.383e-187
3.7029e-193
2.00711e-193
5.1333e-199
3.7029e-193
9.46944e-199
3.7029e-193
9.46944e-199
2.85116e-193
7.29183e-199
1.383e-187
3.7029e-193
1.0648e-187
2.85116e-193
5.1333e-199
1.25342e-204
9.46944e-199
2.31198e-204
1.25342e-204
2.92021e-210
2.31198e-204
5.38593e-210
2.31198e-204
5.38593e-210
1.78043e-204
4.14789e-210
9.46944e-199
2.31198e-204
7.29183e-199
1.78043e-204
7.29183e-199
1.78043e-204
3.96325e-199
9.67649e-205
1.78043e-204
4.14789e-210
9.67649e-205
2.25424e-210
9.67649e-205
2.25424e-210
2.82088e-207
6.15226e-213
3.96325e-199
9.67649e-205
1.23432e-201
2.82088e-207
1.0648e-187
2.85116e-193
5.78796e-188
1.54974e-193
2.85116e-193
7.29183e-199
1.54974e-193
3.96325e-199
1.54974e-193
3.96325e-199
5.15683e-196
1.23432e-201
5.78796e-188
1.54974e-193
2.05817e-190
5.15683e-196
2.05817e-190
5.15683e-196
-5.75873e-188
-1.54241e-193
5.15683e-196
1.23432e-201
-1.54241e-193
-3.94571e-199
-1.54241e-193
-3.94571e-199
-2.85104e-193
-7.29152e-199
-5.75873e-188
-1.54241e-193
-1.06475e-187
-2.85104e-193
1.23432e-201
2.82088e-207
-3.94571e-199
-9.63638e-205
2.82088e-207
6.15226e-213
-9.63638e-205
-2.24548e-210
-9.63638e-205
-2.24548e-210
-1.78035e-204
-4.14771e-210
-3.94571e-199
-9.63638e-205
-7.29152e-199
-1.78035e-204
-7.29152e-199
-1.78035e-204
-9.48632e-199
-2.31583e-204
-1.78035e-204
-4.14771e-210
-2.31583e-204
-5.39429e-210
-2.31583e-204
-5.39429e-210
-1.25615e-204
-2.92613e-210
-9.48632e-199
-2.31583e-204
-5.14526e-199
-1.25615e-204
-1.06475e-187
-2.85104e-193
-1.38583e-187
-3.70997e-193
-2.85104e-193
-7.29152e-199
-3.70997e-193
-9.48632e-199
-3.70997e-193
-9.48632e-199
-2.01212e-193
-5.14526e-199
-1.38583e-187
-3.70997e-193
-7.51562e-188
-2.01212e-193
3.31257e-168
9.95629e-174
-7.08771e-166
-2.27884e-171
9.95629e-174
2.8599e-179
-2.27884e-171
-6.99966e-177
-2.27884e-171
-6.99966e-177
-4.21758e-171
-1.295e-176
-7.08771e-166
-2.27884e-171
-1.31226e-165
-4.21758e-171
2.8599e-179
7.8479e-185
-6.99966e-177
-2.05398e-182
7.8479e-185
2.05817e-190
-2.05398e-182
-5.75873e-188
-2.05398e-182
-5.75873e-188
-3.79882e-182
-1.06475e-187
-6.99966e-177
-2.05398e-182
-1.295e-176
-3.79882e-182
-1.295e-176
-3.79882e-182
-1.68634e-176
-4.94555e-182
-3.79882e-182
-1.06475e-187
-4.94555e-182
-1.38583e-187
-4.94555e-182
-1.38583e-187
-2.6819e-182
-7.51562e-188
-1.68634e-176
-4.94555e-182
-9.1441e-177
-2.6819e-182
-1.31226e-165
-4.21758e-171
-1.70983e-165
-5.49372e-171
-4.21758e-171
-1.295e-176
-5.49372e-171
-1.68634e-176
-5.49372e-171
-1.68634e-176
-2.97875e-171
-9.1441e-177
-1.70983e-165
-5.49372e-171
-9.27013e-166
-2.97875e-171
2.92021e-210
6.48602e-216
5.38593e-210
1.19616e-215
6.48602e-216
1.37185e-221
1.19616e-215
2.52978e-221
1.19616e-215
2.52978e-221
9.21253e-216
1.94847e-221
5.38593e-210
1.19616e-215
4.14789e-210
9.21253e-216
1.37185e-221
2.75902e-227
2.52978e-221
5.08742e-227
2.75902e-227
5.26594e-233
5.08742e-227
9.7093e-233
5.08742e-227
9.7093e-233
3.91858e-227
7.47888e-233
2.52978e-221
5.08742e-227
1.94847e-221
3.91858e-227
1.94847e-221
3.91858e-227
1.05883e-221
2.12932e-227
3.91858e-227
7.47888e-233
2.12932e-227
4.06378e-233
2.12932e-227
4.06378e-233
4.77275e-230
8.5331e-236
1.05883e-221
2.12932e-227
2.53388e-224
4.77275e-230
4.14789e-210
9.21253e-216
2.25424e-210
5.00646e-216
9.21253e-216
1.94847e-221
5.00646e-216
1.05883e-221
5.00646e-216
1.05883e-221
1.27935e-218
2.53388e-224
2.25424e-210
5.00646e-216
6.15226e-213
1.27935e-218
5.26594e-233
9.51357e-239
9.7093e-233
1.75399e-238
9.51357e-239
1.62121e-244
1.75399e-238
2.98878e-244
1.75399e-238
2.98878e-244
1.35111e-238
2.30236e-244
9.7093e-233
1.75399e-238
7.47888e-233
1.35111e-238
1.62121e-244
2.59332e-250
2.98878e-244
4.78065e-250
2.59332e-250
3.86693e-256
4.78065e-250
7.12807e-256
4.78065e-250
7.12807e-256
3.68281e-250
5.49133e-256
2.98878e-244
4.78065e-250
2.30236e-244
3.68281e-250
2.30236e-244
3.68281e-250
1.25093e-244
2.00089e-250
3.68281e-250
5.49133e-256
2.00089e-250
2.98336e-256
2.00089e-250
2.98336e-256
3.45818e-253
4.83428e-259
1.25093e-244
2.00089e-250
2.30649e-247
3.45818e-253
7.47888e-233
1.35111e-238
4.06378e-233
7.3412e-239
1.35111e-238
2.30236e-244
7.3412e-239
1.25093e-244
7.3412e-239
1.25093e-244
1.44434e-241
2.30649e-247
4.06378e-233
7.3412e-239
8.5331e-236
1.44434e-241
8.5331e-236
1.44434e-241
-4.0516e-233
-7.32057e-239
1.44434e-241
2.30649e-247
-7.32057e-239
-1.24763e-244
-7.32057e-239
-1.24763e-244
-1.35104e-238
-2.30224e-244
-4.0516e-233
-7.32057e-239
-7.47851e-233
-1.35104e-238
2.30649e-247
3.45818e-253
-1.24763e-244
-1.99594e-250
3.45818e-253
4.83428e-259
-1.99594e-250
-2.97643e-256
-1.99594e-250
-2.97643e-256
-3.68262e-250
-5.49103e-256
-1.24763e-244
-1.99594e-250
-2.30224e-244
-3.68262e-250
-2.30224e-244
-3.68262e-250
-2.99184e-244
-4.78522e-250
-3.68262e-250
-5.49103e-256
-4.78522e-250
-7.13442e-256
-4.78522e-250
-7.13442e-256
-2.59656e-250
-3.87142e-256
-2.99184e-244
-4.78522e-250
-1.62337e-244