<VTKFile type="UnstructuredGrid" version="0.1" byte_order="LittleEndian">
<UnstructuredGrid>
<Piece NumberOfPoints="2048" NumberOfCells="512">
<Points>
<DataArray type="Float64" NumberOfComponents="3" format="ascii">
0 0 0
0.125 0 0
0 0.125 0
0.125 0.125 0
0.125 0 0
0.25 0 0
0.125 0.125 0
0.25 0.125 0
0.125 0.125 0
0.25 0.125 0
0.125 0.25 0
0.25 0.25 0
0 0.125 0
0.125 0.125 0
0 0.25 0
0.125 0.25 0
0.25 0 0
0.375 0 0
0.25 0.125 0
0.375 0.125 0
0.375 0 0
0.5 0 0
0.375 0.125 0
0.5 0.125 0
0.375 0.125 0
0.5 0.125 0
0.375 0.25 0
0.5 0.25 0
0.25 0.125 0
0.375 0.125 0
0.25 0.25 0
0.375 0.25 0
0.25 0.25 0
0.375 0.25 0
0.25 0.375 0
0.375 0.375 0
0.375 0.25 0
0.5 0.25 0
0.375 0.375 0
0.5 0.375 0
0.375 0.375 0
0.5 0.375 0
0.375 0.5 0
0.5 0.5 0
0.25 0.375 0
0.375 0.375 0
0.25 0.5 0
0.375 0.5 0
0 0.25 0
0.125 0.25 0
0 0.375 0
0.125 0.375 0
0.125 0.25 0
0.25 0.25 0
0.125 0.375 0
0.25 0.375 0
0.125 0.375 0
0.25 0.375 0
0.125 0.5 0
0.25 0.5 0
0 0.375 0
0.125 0.375 0
0 0.5 0
0.125 0.5 0
0.5 0 0
0.625 0 0
0.5 0.125 0
0.625 0.125 0
0.625 0 0
0.75 0 0
0.625 0.125 0
0.75 0.125 0
0.625 0.125 0
0.75 0.125 0
0.625 0.25 0
0.75 0.25 0
0.5 0.125 0
0.625 0.125 0
0.5 0.25 0
0.625 0.25 0
0.75 0 0
0.875 0 0
0.75 0.125 0
0.875 0.125 0
0.875 0 0
1 0 0
0.875 0.125 0
1 0.125 0
0.875 0.125 0
1 0.125 0
0.875 0.25 0
1 0.25 0
0.75 0.125 0
0.875 0.125 0
0.75 0.25 0
0.875 0.25 0
0.75 0.25 0
0.875 0.25 0
0.75 0.375 0
0.875 0.375 0
0.875 0.25 0
1 0.25 0
0.875 0.375 0
1 0.375 0
0.875 0.375 0
1 0.375 0
0.875 0.5 0
1 0.5 0
0.75 0.375 0
0.875 0.375 0
0.75 0.5 0
0.875 0.5 0
0.5 0.25 0
0.625 0.25 0
0.5 0.375 0
0.625 0.375 0
0.625 0.25 0
0.75 0.25 0
0.625 0.375 0
0.75 0.375 0
0.625 0.375 0
0.75 0.375 0
0.625 0.5 0
0.75 0.5 0
0.5 0.375 0
0.625 0.375 0
0.5 0.5 0
0.625 0.5 0
0.5 0.5 0
0.625 0.5 0
0.5 0.625 0
0.625 0.625 0
0.625 0.5 0
0.75 0.5 0
0.625 0.625 0
0.75 0.625 0
0.625 0.625 0
0.75 0.625 0
0.625 0.75 0
0.75 0.75 0
0.5 0.625 0
0.625 0.625 0
0.5 0.75 0
0.625 0.75 0
0.75 0.5 0
0.875 0.5 0
0.75 0.625 0
0.875 0.625 0
0.875 0.5 0
1 0.5 0
0.875 0.625 0
1 0.625 0
0.875 0.625 0
1 0.625 0
0.875 0.75 0
1 0.75 0
0.75 0.625 0
0.875 0.625 0
0.75 0.75 0
0.875 0.75 0
0.75 0.75 0
0.875 0.75 0
0.75 0.875 0
0.875 0.875 0
0.875 0.75 0
1 0.75 0
0.875 0.875 0
1 0.875 0
0.875 0.875 0
1 0.875 0
0.875 1 0
1 1 0
0.75 0.875 0
0.875 0.875 0
0.75 1 0
0.875 1 0
0.5 0.75 0
0.625 0.75 0
0.5 0.875 0
0.625 0.875 0
0.625 0.75 0
0.75 0.75 0
0.625 0.875 0
0.75 0.875 0
0.625 0.875 0
0.75 0.875 0
0.625 1 0
0.75 1 0
0.5 0.875 0
0.625 0.875 0
0.5 1 0
0.625 1 0
0 0.5 0
0.125 0.5 0
0 0.625 0
0.125 0.625 0
0.125 0.5 0
0.25 0.5 0
0.125 0.625 0
0.25 0.625 0
0.125 0.625 0
0.25 0.625 0
0.125 0.75 0
0.25 0.75 0
0 0.625 0
0.125 0.625 0
0 0.75 0
0.125 0.75 0
0.25 0.5 0
0.375 0.5 0
0.25 0.625 0
0.375 0.625 0
0.375 0.5 0
0.5 0.5 0
0.375 0.625 0
0.5 0.625 0
0.375 0.625 0
0.5 0.625 0
0.375 0.75 0
0.5 0.75 0
0.25 0.625 0
0.375 0.625 0
0.25 0.75 0
0.375 0.75 0
0.25 0.75 0
0.375 0.75 0
0.25 0.875 0
0.375 0.875 0
0.375 0.75 0
0.5 0.75 0
0.375 0.875 0
0.5 0.875 0
0.375 0.875 0
0.5 0.875 0
0.375 1 0
0.5 1 0
0.25 0.875 0
0.375 0.875 0
0.25 1 0
0.375 1 0
0 0.75 0
0.125 0.75 0
0 0.875 0
0.125 0.875 0
0.125 0.75 0
0.25 0.75 0
0.125 0.875 0
0.25 0.875 0
0.125 0.875 0
0.25 0.875 0
0.125 1 0
0.25 1 0
0 0.875 0
0.125 0.875 0
0 1 0
0.125 1 0
1 0 0
1.125 0 0
1 0.125 0
1.125 0.125 0
1.125 0 0
1.25 0 0
1.125 0.125 0
1.25 0.125 0
1.125 0.125 0
1.25 0.125 0
1.125 0.25 0
1.25 0.25 0
1 0.125 0
1.125 0.125 0
1 0.25 0
1.125 0.25 0
1.25 0 0
1.375 0 0
1.25 0.125 0
1.375 0.125 0
1.375 0 0
1.5 0 0
1.375 0.125 0
1.5 0.125 0
1.375 0.125 0
1.5 0.125 0
1.375 0.25 0
1.5 0.25 0
1.25 0.125 0
1.375 0.125 0
1.25 0.25 0
1.375 0.25 0
1.25 0.25 0
1.375 0.25 0
1.25 0.375 0
1.375 0.375 0
1.375 0.25 0
1.5 0.25 0
1.375 0.375 0
1.5 0.375 0
1.375 0.375 0
1.5 0.375 0
1.375 0.5 0
1.5 0.5 0
1.25 0.375 0
1.375 0.375 0
1.25 0.5 0
1.375 0.5 0
1 0.25 0
1.125 0.25 0
1 0.375 0
1.125 0.375 0
1.125 0.25 0
1.25 0.25 0
1.125 0.375 0
1.25 0.375 0
1.125 0.375 0
1.25 0.375 0
1.125 0.5 0
1.25 0.5 0
1 0.375 0
1.125 0.375 0
1 0.5 0
1.125 0.5 0
1.5 0 0
1.625 0 0
1.5 0.125 0
1.625 0.125 0
1.625 0 0
1.75 0 0
1.625 0.125 0
1.75 0.125 0
1.625 0.125 0
1.75 0.125 0
1.625 0.25 0
1.75 0.25 0
1.5 0.125 0
1.625 0.125 0
1.5 0.25 0
1.625 0.25 0
1.75 0 0
1.875 0 0
1.75 0.125 0
1.875 0.125 0
1.875 0 0
2 0 0
1.875 0.125 0
2 0.125 0
1.875 0.125 0
2 0.125 0
1.875 0.25 0
2 0.25 0
1.75 0.125 0
1.875 0.125 0
1.75 0.25 0
1.875 0.25 0
1.75 0.25 0
1.875 0.25 0
1.75 0.375 0
1.875 0.375 0
1.875 0.25 0
2 0.25 0
1.875 0.375 0
2 0.375 0
1.875 0.375 0
2 0.375 0
1.875 0.5 0
2 0.5 0
1.75 0.375 0
1.875 0.375 0
1.75 0.5 0
1.875 0.5 0
1.5 0.25 0
1.625 0.25 0
1.5 0.375 0
1.625 0.375 0
1.625 0.25 0
1.75 0.25 0
1.625 0.375 0
1.75 0.375 0
1.625 0.375 0
1.75 0.375 0
1.625 0.5 0
1.75 0.5 0
1.5 0.375 0
1.625 0.375 0
1.5 0.5 0
1.625 0.5 0
1.5 0.5 0
1.625 0.5 0
1.5 0.625 0
1.625 0.625 0
1.625 0.5 0
1.75 0.5 0
1.625 0.625 0
1.75 0.625 0
1.625 0.625 0
1.75 0.625 0
1.625 0.75 0
1.75 0.75 0
1.5 0.625 0
1.625 0.625 0
1.5 0.75 0
1.625 0.75 0
1.75 0.5 0
1.875 0.5 0
1.75 0.625 0
1.875 0.625 0
1.875 0.5 0
2 0.5 0
1.875 0.625 0
2 0.625 0
1.875 0.625 0
2 0.625 0
1.875 0.75 0
2 0.75 0
1.75 0.625 0
1.875 0.625 0
1.75 0.75 0
1.875 0.75 0
1.75 0.75 0
1.875 0.75 0
1.75 0.875 0
1.875 0.875 0
1.875 0.75 0
2 0.75 0
1.875 0.875 0
2 0.875 0
1.875 0.875 0
2 0.875 0
1.875 1 0
2 1 0
1.75 0.875 0
1.875 0.875 0
1.75 1 0
1.875 1 0
1.5 0.75 0
1.625 0.75 0
1.5 0.875 0
1.625 0.875 0
1.625 0.75 0
1.75 0.75 0
1.625 0.875 0
1.75 0.875 0
1.625 0.875 0
1.75 0.875 0
1.625 1 0
1.75 1 0
1.5 0.875 0
1.625 0.875 0
1.5 1 0
1.625 1 0
1 0.5 0
1.125 0.5 0
1 0.625 0
1.125 0.625 0
1.125 0.5 0
1.25 0.5 0
1.125 0.625 0
1.25 0.625 0
1.125 0.625 0
1.25 0.625 0
1.125 0.75 0
1.25 0.75 0
1 0.625 0
1.125 0.625 0
1 0.75 0
1.125 0.75 0
1.25 0.5 0
1.375 0.5 0
1.25 0.625 0
1.375 0.625 0
1.375 0.5 0
1.5 0.5 0
1.375 0.625 0
1.5 0.625 0
1.375 0.625 0
1.5 0.625 0
1.375 0.75 0
1.5 0.75 0
1.25 0.625 0
1.375 0.625 0
1.25 0.75 0
1.375 0.75 0
1.25 0.75 0
1.375 0.75 0
1.25 0.875 0
1.375 0.875 0
1.375 0.75 0
1.5 0.75 0
1.375 0.875 0
1.5 0.875 0
1.375 0.875 0
1.5 0.875 0
1.375 1 0
1.5 1 0
1.25 0.875 0
1.375 0.875 0
1.25 1 0
1.375 1 0
1 0.75 0
1.125 0.75 0
1 0.875 0
1.125 0.875 0
1.125 0.75 0
1.25 0.75 0
1.125 0.875 0
1.25 0.875 0
1.125 0.875 0
1.25 0.875 0
1.125 1 0
1.25 1 0
1 0.875 0
1.125 0.875 0
1 1 0
1.125 1 0
2 0 0
2.125 0 0
2 0.125 0
2.125 0.125 0
2.125 0 0
2.25 0 0
2.125 0.125 0
2.25 0.125 0
2.125 0.125 0
2.25 0.125 0
2.125 0.25 0
2.25 0.25 0
2 0.125 0
2.125 0.125 0
2 0.25 0
2.125 0.25 0
2.25 0 0
2.375 0 0
2.25 0.125 0
2.375 0.125 0
2.375 0 0
2.5 0 0
2.375 0.125 0
2.5 0.125 0
2.375 0.125 0
2.5 0.125 0
2.375 0.25 0
2.5 0.25 0
2.25 0.125 0
2.375 0.125 0
2.25 0.25 0
2.375 0.25 0
2.25 0.25 0
2.375 0.25 0
2.25 0.375 0
2.375 0.375 0
2.375 0.25 0
2.5 0.25 0
2.375 0.375 0
2.5 0.375 0
2.375 0.375 0
2.5 0.375 0
2.375 0.5 0
2.5 0.5 0
2.25 0.375 0
2.375 0.375 0
2.25 0.5 0
2.375 0.5 0
2 0.25 0
2.125 0.25 0
2 0.375 0
2.125 0.375 0
2.125 0.25 0
2.25 0.25 0
2.125 0.375 0
2.25 0.375 0
2.125 0.375 0
2.25 0.375 0
2.125 0.5 0
2.25 0.5 0
2 0.375 0
2.125 0.375 0
2 0.5 0
2.125 0.5 0
2.5 0 0
2.625 0 0
2.5 0.125 0
2.625 0.125 0
2.625 0 0
2.75 0 0
2.625 0.125 0
2.75 0.125 0
2.625 0.125 0
2.75 0.125 0
2.625 0.25 0
2.75 0.25 0
2.5 0.125 0
2.625 0.125 0
2.5 0.25 0
2.625 0.25 0
2.75 0 0
2.875 0 0
2.75 0.125 0
2.875 0.125 0
2.875 0 0
3 0 0
2.875 0.125 0
3 0.125 0
2.875 0.125 0
3 0.125 0
2.875 0.25 0
3 0.25 0
2.75 0.125 0
2.875 0.125 0
2.75 0.25 0
2.875 0.25 0
2.75 0.25 0
2.875 0.25 0
2.75 0.375 0
2.875 0.375 0
2.875 0.25 0
3 0.25 0
2.875 0.375 0
3 0.375 0
2.875 0.375 0
3 0.375 0
2.875 0.5 0
3 0.5 0
2.75 0.375 0
2.875 0.375 0
2.75 0.5 0
2.875 0.5 0
2.5 0.25 0
2.625 0.25 0
2.5 0.375 0
2.625 0.375 0
2.625 0.25 0
2.75 0.25 0
2.625 0.375 0
2.75 0.375 0
2.625 0.375 0
2.75 0.375 0
2.625 0.5 0
2.75 0.5 0
2.5 0.375 0
2.625 0.375 0
2.5 0.5 0
2.625 0.5 0
2.5 0.5 0
2.625 0.5 0
2.5 0.625 0
2.625 0.625 0
2.625 0.5 0
2.75 0.5 0
2.625 0.625 0
2.75 0.625 0
2.625 0.625 0
2.75 0.625 0
2.625 0.75 0
2.75 0.75 0
2.5 0.625 0
2.625 0.625 0
2.5 0.75 0
2.625 0.75 0
2.75 0.5 0
2.875 0.5 0
2.75 0.625 0
2.875 0.625 0
2.875 0.5 0
3 0.5 0
2.875 0.625 0
3 0.625 0
2.875 0.625 0
3 0.625 0
2.875 0.75 0
3 0.75 0
2.75 0.625 0
2.875 0.625 0
2.75 0.75 0
2.875 0.75 0
2.75 0.75 0
2.875 0.75 0
2.75 0.875 0
2.875 0.875 0
2.875 0.75 0
3 0.75 0
2.875 0.875 0
3 0.875 0
2.875 0.875 0
3 0.875 0
2.875 1 0
3 1 0
2.75 0.875 0
2.875 0.875 0
2.75 1 0
2.875 1 0
2.5 0.75 0
2.625 0.75 0
2.5 0.875 0
2.625 0.875 0
2.625 0.75 0
2.75 0.75 0
2.625 0.875 0
2.75 0.875 0
2.625 0.875 0
2.75 0.875 0
2.625 1 0
2.75 1 0
2.5 0.875 0
2.625 0.875 0
2.5 1 0
2.625 1 0
2 0.5 0
2.125 0.5 0
2 0.625 0
2.125 0.625 0
2.125 0.5 0
2.25 0.5 0
2.125 0.625 0
2.25 0.625 0
2.125 0.625 0
2.25 0.625 0
2.125 0.75 0
2.25 0.75 0
2 0.625 0
2.125 0.625 0
2 0.75 0
2.125 0.75 0
2.25 0.5 0
2.375 0.5 0
2.25 0.625 0
2.375 0.625 0
2.375 0.5 0
2.5 0.5 0
2.375 0.625 0
2.5 0.625 0
2.375 0.625 0
2.5 0.625 0
2.375 0.75 0
2.5 0.75 0
2.25 0.625 0
2.375 0.625 0
2.25 0.75 0
2.375 0.75 0
2.25 0.75 0
2.375 0.75 0
2.25 0.875 0
2.375 0.875 0
2.375 0.75 0
2.5 0.75 0
2.375 0.875 0
2.5 0.875 0
2.375 0.875 0
2.5 0.875 0
2.375 1 0
2.5 1 0
2.25 0.875 0
2.375 0.875 0
2.25 1 0
2.375 1 0
2 0.75 0
2.125 0.75 0
2 0.875 0
2.125 0.875 0
2.125 0.75 0
2.25 0.75 0
2.125 0.875 0
2.25 0.875 0
2.125 0.875 0
2.25 0.875 0
2.125 1 0
2.25 1 0
2 0.875 0
2.125 0.875 0
2 1 0
2.125 1 0
3 0 0
3.125 0 0
3 0.125 0
3.125 0.125 0
3.125 0 0
3.25 0 0
3.125 0.125 0
3.25 0.125 0
3.125 0.125 0
3.25 0.125 0
3.125 0.25 0
3.25 0.25 0
3 0.125 0
3.125 0.125 0
3 0.25 0
3.125 0.25 0
3.25 0 0
3.375 0 0
3.25 0.125 0
3.375 0.125 0
3.375 0 0
3.5 0 0
3.375 0.125 0
3.5 0.125 0
3.375 0.125 0
3.5 0.125 0
3.375 0.25 0
3.5 0.25 0
3.25 0.125 0
3.375 0.125 0
3.25 0.25 0
3.375 0.25 0
3.25 0.25 0
3.375 0.25 0
3.25 0.375 0
3.375 0.375 0
3.375 0.25 0
3.5 0.25 0
3.375 0.375 0
3.5 0.375 0
3.375 0.375 0
3.5 0.375 0
3.375 0.5 0
3.5 0.5 0
3.25 0.375 0
3.375 0.375 0
3.25 0.5 0
[...]
<CellData Scalars="attribute">
<DataArray type="Int32" Name="attribute" format="ascii">
1
1
1
1
1
1
1
1
1
1
1
1
1
1
1
1
1
1
1
1
1
1
1
1
1
1
1
1
1
1
1
1
1
1
1
1
1
1
1
1
1
1
1
1
1
1
1
1
1
1
1
1
1
1
1
1
1
1
1
1
1
1
1
1
1
1
1
1
1
1
1
1
1
1
1
1
1
1
1
1
1
1
1
1
1
1
1
1
1
1
1
1
1
1
1
1
1
1
1
1
1
1
1
1
1
1
1
1
1
1
1
1
1
1
1
1
1
1
1
1
1
1
1
1
1
1
1
1
1
1
1
1
1
1
1
1
1
1
1
1
1
1
1
1
1
1
1
1
1
1
1
1
1
1
1
1
1
1
1
1
1
1
1
1
1
1
1
1
1
1
1
1
1
1
1
1
1
1
1
1
1
1
1
1
1
1
1
1
1
1
1
1
1
1
1
1
1
1
1
1
1
1
1
1
1
1
1
1
1
1
1
1
1
1
1
1
1
1
1
1
1
1
1
1
1
1
1
1
1
1
1
1
1
1
1
1
1
1
1
1
1
1
1
1
1
1
1
1
1
1
1
1
1
1
1
1
2
2
2
2
2
2
2
2
2
2
2
2
2
2
2
2
2
2
2
2
2
2
2
2
2
2
2
2
2
2
2
2
2
2
2
2
2
2
2
2
2
2
2
2
2
2
2
2
2
2
2
2
2
2
2
2
2
2
2
2
2
2
2
2
2
2
2
2
2
2
2
2
2
2
2
2
2
2
2
2
2
2
2
2
2
2
2
2
2
2
2
2
2
2
2
2
2
2
2
2
2
2
2
2
2
2
2
2
2
2
2
2
2
2
2
2
2
2
2
2
2
2
2
2
2
2
2
2
2
2
2
2
2
2
2
2
2
2
2
2
2
2
2
2
2
2
2
2
2
2
2
2
2
2
2
2
2
2
2
2
2
2
2
2
2
2
2
2
2
2
2
2
2
2
2
2
2
2
2
2
2
2
2
2
2
2
2
2
2
2
2
2
2
2
2
2
2
2
2
2
2
2
2
2
2
2
2
2
2
2
2
2
2
2
2
2
2
2
2
2
2
2
2
2
2
2
2
2
2
2
2
2
2
2
2
2
2
2
2
2
2
2
2
2
2
2
2
2
2
2
2
2
2
2
2
2
</DataArray>
</CellData>
<PointData >
<DataArray type="Float64" Name="Pressure" NumberOfComponents="1" format="ascii" >
-5.88352e-05
-1.92356e-08
-9.62764e-05
-3.18414e-08
-1.92356e-08
2.72114e-13
-3.18414e-08
4.71212e-13
-3.18414e-08
4.71212e-13
-2.13764e-08
3.19986e-13
-9.62764e-05
-3.18414e-08
-6.41845e-05
-2.13764e-08
2.72114e-13
-2.47948e-18
4.71212e-13
-4.42655e-18
-2.47948e-18
2.29108e-23
-4.42655e-18
4.24037e-23
-4.42655e-18
4.24037e-23
-3.08199e-18
3.0323e-23
4.71212e-13
-4.42655e-18
3.19986e-13
-3.08199e-18
3.19986e-13
-3.08199e-18
1.63977e-13
-1.57484e-18
-3.08199e-18
3.0323e-23
-1.57484e-18
1.55108e-23
-1.57484e-18
1.55108e-23
-5.2096e-20
4.9182e-25
1.63977e-13
-1.57484e-18
5.77549e-15
-5.2096e-20
-6.41845e-05
-2.13764e-08
-3.20924e-05
-1.08548e-08
-2.13764e-08
3.19986e-13
-1.08548e-08
1.63977e-13
-1.08548e-08
1.63977e-13
-2.40381e-10
5.77549e-15
-3.20924e-05
-1.08548e-08
-2.95834e-10
-2.40381e-10
2.29108e-23
-1.09127e-28
4.24037e-23
-2.09311e-28
-1.09127e-28
8.89753e-34
-2.09311e-28
1.71619e-33
-2.09311e-28
1.71619e-33
-1.55037e-28
1.28944e-33
4.24037e-23
-2.09311e-28
3.0323e-23
-1.55037e-28
8.89753e-34
-1.7524e-39
1.71619e-33
-3.72498e-39
-1.7524e-39
2.12163e-44
-3.72498e-39
4.15381e-44
-3.72498e-39
4.15381e-44
-3.01054e-39
3.21648e-44
1.71619e-33
-3.72498e-39
1.28944e-33
-3.01054e-39
1.28944e-33
-3.01054e-39
6.70344e-34
-1.58726e-39
-3.01054e-39
3.21648e-44
-1.58726e-39
1.70809e-44
-1.58726e-39
1.70809e-44
-4.57284e-41
4.34863e-46
6.70344e-34
-1.58726e-39
1.92221e-35
-4.57284e-41
3.0323e-23
-1.55037e-28
1.55108e-23
-7.97908e-29
-1.55037e-28
1.28944e-33
-7.97908e-29
6.70344e-34
-7.97908e-29
6.70344e-34
-2.43566e-30
1.92221e-35
1.55108e-23
-7.97908e-29
4.9182e-25
-2.43566e-30
4.9182e-25
-2.43566e-30
-1.47365e-23
7.59945e-29
-2.43566e-30
1.92221e-35
7.59945e-29
-6.41017e-34
7.59945e-29
-6.41017e-34
1.54481e-28
-1.28603e-33
-1.47365e-23
7.59945e-29
-3.01805e-23
1.54481e-28
1.92221e-35
-4.57284e-41
-6.41017e-34
1.51798e-39
-4.57284e-41
4.34863e-46
1.51798e-39
-1.64361e-44
1.51798e-39
-1.64361e-44
3.00243e-39
-3.21127e-44
-6.41017e-34
1.51798e-39
-1.28603e-33
3.00243e-39
-1.28603e-33
3.00243e-39
-1.74357e-33
3.78169e-39
3.00243e-39
-3.21127e-44
3.78169e-39
-4.21193e-44
3.78169e-39
-4.21193e-44
1.79062e-39
-2.1627e-44
-1.74357e-33
3.78169e-39
-9.09774e-34
1.79062e-39
-3.01805e-23
1.54481e-28
-4.31592e-23
2.12872e-28
1.54481e-28
-1.28603e-33
2.12872e-28
-1.74357e-33
2.12872e-28
-1.74357e-33
1.11774e-28
-9.09774e-34
-4.31592e-23
2.12872e-28
-2.35129e-23
1.11774e-28
-2.95834e-10
-2.40381e-10
3.2092e-05
1.04669e-08
-2.40381e-10
5.77549e-15
1.04669e-08
-1.54676e-13
1.04669e-08
-1.54676e-13
2.12669e-08
-3.1743e-13
3.2092e-05
1.04669e-08
6.41844e-05
2.12669e-08
5.77549e-15
-5.2096e-20
-1.54676e-13
1.49179e-18
-5.2096e-20
4.9182e-25
1.49179e-18
-1.47365e-23
1.49179e-18
-1.47365e-23
3.06267e-18
-3.01805e-23
-1.54676e-13
1.49179e-18
-3.1743e-13
3.06267e-18
-3.1743e-13
3.06267e-18
-4.79923e-13
4.50886e-18
3.06267e-18
-3.01805e-23
4.50886e-18
-4.31592e-23
4.50886e-18
-4.31592e-23
2.54956e-18
-2.35129e-23
-4.79923e-13
4.50886e-18
-2.81035e-13
2.54956e-18
6.41844e-05
2.12669e-08
9.62769e-05
3.21996e-08
2.12669e-08
-3.1743e-13
3.21996e-08
-4.79923e-13
3.21996e-08
-4.79923e-13
1.96151e-08
-2.81035e-13
9.62769e-05
3.21996e-08
5.88357e-05
1.96151e-08
2.12163e-44
6.67382e-51
4.15381e-44
2.21244e-51
6.67382e-51
3.68564e-55
2.21244e-51
7.1522e-55
2.21244e-51
7.1522e-55
-4.61143e-51
5.58191e-55
4.15381e-44
2.21244e-51
3.21648e-44
-4.61143e-51
3.68564e-55
6.98672e-61
7.1522e-55
1.18195e-60
6.98672e-61
4.91292e-66
1.18195e-60
9.36255e-66
1.18195e-60
9.36255e-66
8.15484e-61
7.26754e-66
7.1522e-55
1.18195e-60
5.58191e-55
8.15484e-61
5.58191e-55
8.15484e-61
3.00833e-55
4.25017e-61
8.15484e-61
7.26754e-66
4.25017e-61
3.94059e-66
4.25017e-61
3.94059e-66
7.14064e-63
7.49635e-68
3.00833e-55
4.25017e-61
6.66508e-57
7.14064e-63
3.21648e-44
-4.61143e-51
1.70809e-44
-3.10177e-51
-4.61143e-51
5.58191e-55
-3.10177e-51
3.00833e-55
-3.10177e-51
3.00833e-55
-1.71565e-52
6.66508e-57
1.70809e-44
-3.10177e-51
4.34863e-46
-1.71565e-52
4.91292e-66
1.24535e-71
9.36255e-66
2.23214e-71
1.24535e-71
4.85798e-77
2.23214e-71
9.12467e-77
2.23214e-71
9.12467e-77
1.63978e-71
7.03416e-77
9.36255e-66
2.23214e-71
7.26754e-66
1.63978e-71
4.85798e-77
1.21931e-82
9.12467e-77
2.22625e-82
1.21931e-82
3.39506e-88
2.22625e-82
6.32437e-88
2.22625e-82
6.32437e-88
1.67228e-82
4.85673e-88
9.12467e-77
2.22625e-82
7.03416e-77
1.67228e-82
7.03416e-77
1.67228e-82
3.8193e-77
8.99059e-83
1.67228e-82
4.85673e-88
8.99059e-83
2.63758e-88
8.99059e-83
2.63758e-88
1.29299e-84
3.69507e-90
3.8193e-77
8.99059e-83
6.22249e-79
1.29299e-84
7.26754e-66
1.63978e-71
3.94059e-66
8.73095e-72
1.63978e-71
7.03416e-77
8.73095e-72
3.8193e-77
8.73095e-72
3.8193e-77
1.40273e-73
6.22249e-79
3.94059e-66
8.73095e-72
7.49635e-68
1.40273e-73
7.49635e-68
1.40273e-73
-3.83269e-66
-8.53247e-72
1.40273e-73
6.22249e-79
-8.53247e-72
-3.73037e-77
-8.53247e-72
-3.73037e-77
-1.64032e-71
-7.03171e-77
-3.83269e-66
-8.53247e-72
-7.26296e-66
-1.64032e-71
6.22249e-79
1.29299e-84
-3.73037e-77
-8.80773e-83
1.29299e-84
3.69507e-90
-8.80773e-83
-2.58501e-88
-8.80773e-83
-2.58501e-88
-1.67254e-82
-4.85586e-88
-3.73037e-77
-8.80773e-83
-7.03171e-77
-1.67254e-82
-7.03171e-77
-1.67254e-82
-9.20863e-77
-2.24552e-82
-1.67254e-82
-4.85586e-88
-2.24552e-82
-6.37516e-88
-2.24552e-82
-6.37516e-88
-1.23305e-82
-3.43109e-88
-9.20863e-77
-2.24552e-82
-4.91746e-77
-1.23305e-82
-7.26296e-66
-1.64032e-71
-9.46144e-66
-2.25427e-71
-1.64032e-71
-7.03171e-77
-2.25427e-71
-9.20863e-77
-2.25427e-71
-9.20863e-77
-1.26132e-71
-4.91746e-77
-9.46144e-66
-2.25427e-71
-4.98271e-66
-1.26132e-71
4.34863e-46
-1.71565e-52
-1.64361e-44
2.83353e-51
-1.71565e-52
6.66508e-57
2.83353e-51
-2.91131e-55
2.83353e-51
-2.91131e-55
4.52681e-51
-5.57612e-55
-1.64361e-44
2.83353e-51
-3.21127e-44
4.52681e-51
6.66508e-57
7.14064e-63
-2.91131e-55
-4.14963e-61
7.14064e-63
7.49635e-68
-4.14963e-61
-3.83269e-66
-4.14963e-61
-3.83269e-66
-8.16244e-61
-7.26296e-66
-2.91131e-55
-4.14963e-61
-5.57612e-55
-8.16244e-61
-5.57612e-55
-8.16244e-61
-7.23917e-55
-1.19529e-60
-8.16244e-61
-7.26296e-66
-1.19529e-60
-9.46144e-66
-1.19529e-60
-9.46144e-66
-7.08688e-61
-4.98271e-66
-7.23917e-55
-1.19529e-60
-3.74673e-55
-7.08688e-61
-3.21127e-44
4.52681e-51
-4.21193e-44
-2.22266e-51
4.52681e-51
-5.57612e-55
-2.22266e-51
-7.23917e-55
-2.22266e-51
-7.23917e-55
-6.73876e-51
-3.74673e-55
-4.21193e-44
-2.22266e-51
-2.1627e-44
-6.73876e-51
3.39506e-88
7.496e-94
6.32437e-88
1.37877e-93
7.496e-94
1.61156e-99
1.37877e-93
2.98973e-99
1.37877e-93
2.98973e-99
1.0467e-93
2.29316e-99
6.32437e-88
1.37877e-93
4.85673e-88
1.0467e-93
1.61156e-99
2.95135e-105
2.98973e-99
5.44491e-105
2.95135e-105
4.9422e-111
5.44491e-105
9.15056e-111
5.44491e-105
9.15056e-111
4.15658e-105
7.01953e-111
2.98973e-99
5.44491e-105
2.29316e-99
4.15658e-105
2.29316e-99
4.15658e-105
1.24564e-99
2.25294e-105
4.15658e-105
7.01953e-111
2.25294e-105
3.81416e-111
2.25294e-105
3.81416e-111
2.50541e-107
4.00761e-113
1.24564e-99
2.25294e-105
1.50824e-101
2.50541e-107
4.85673e-88
1.0467e-93
2.63758e-88
5.65688e-94
1.0467e-93
2.29316e-99
5.65688e-94
1.24564e-99
5.65688e-94
1.24564e-99
7.17399e-96
1.50824e-101
2.63758e-88
5.65688e-94
3.69507e-90
7.17399e-96
4.9422e-111
7.09052e-117
9.15056e-111
1.30961e-116
7.09052e-117
8.72193e-123
1.30961e-116
1.61323e-122
1.30961e-116
1.61323e-122
1.00287e-116
1.2383e-122
9.15056e-111
1.30961e-116
7.01953e-111
1.00287e-116
8.72193e-123
8.43386e-129
1.61323e-122
1.55822e-128
8.43386e-129
5.15106e-135
1.55822e-128
9.52178e-135
1.55822e-128
9.52178e-135
1.19546e-128
7.31395e-135
1.61323e-122
1.55822e-128
1.2383e-122
1.19546e-128
1.2383e-122
1.19546e-128
6.73049e-123
6.49537e-129
1.19546e-128
7.31395e-135
6.49537e-129
3.97616e-135
6.49537e-129
3.97616e-135
5.5231e-131
3.16881e-137
6.73049e-123
6.49537e-129
6.15347e-125
5.5231e-131
7.01953e-111
1.00287e-116
3.81416e-111
5.44433e-117
1.00287e-116
1.2383e-122
5.44433e-117
6.73049e-123
5.44433e-117
6.73049e-123
5.29663e-119
6.15347e-125
3.81416e-111
5.44433e-117
4.00761e-113
5.29663e-119
4.00761e-113
5.29663e-119
-3.75738e-111
-5.36944e-117
5.29663e-119
6.15347e-125
-5.36944e-117
-6.64337e-123
-5.36944e-117
-6.64337e-123
-1.00288e-116
-1.23827e-122
-3.75738e-111
-5.36944e-117
-7.01921e-111
-1.00288e-116
6.15347e-125
5.5231e-131
-6.64337e-123
-6.41725e-129
5.5231e-131
3.16881e-137
-6.41725e-129
-3.93131e-135
-6.41725e-129
-3.93131e-135
-1.19546e-128
-7.31379e-135
-6.64337e-123
-6.41725e-129
-1.23827e-122
-1.19546e-128
-1.23827e-122
-1.19546e-128
-1.62185e-122
-1.566e-128
-1.19546e-128
-7.31379e-135
-1.566e-128
-9.56616e-135
-1.566e-128
-9.56616e-135
-8.48899e-129
-5.1825e-135
-1.62185e-122
-1.566e-128
-8.783e-123
-8.48899e-129
-7.01921e-111
-1.00288e-116
-9.20658e-111
-1.31712e-116
-1.00288e-116
-1.23827e-122
-1.31712e-116
-1.62185e-122
-1.31712e-116
-1.62185e-122
-7.14368e-117
-8.783e-123
-9.20658e-111
-1.31712e-116
-4.98191e-111
-7.14368e-117
3.69507e-90
7.17399e-96
-2.58501e-88
-5.55546e-94
7.17399e-96
1.50824e-101
-5.55546e-94
-1.22423e-99
-5.55546e-94
-1.22423e-99
-1.04678e-93
-2.29296e-99
-2.58501e-88
-5.55546e-94
-4.85586e-88
-1.04678e-93
1.50824e-101
2.50541e-107
-1.22423e-99
-2.21752e-105
2.50541e-107
4.00761e-113
-2.21752e-105
-3.75738e-111
-2.21752e-105
-3.75738e-111
-4.15673e-105
-7.01921e-111
-1.22423e-99
-2.21752e-105
-2.29296e-99
-4.15673e-105
-2.29296e-99
-4.15673e-105
-3.0107e-99
-5.48072e-105
-4.15673e-105
-7.01921e-111
-5.48072e-105
-9.20658e-111
-5.48072e-105
-9.20658e-111
-2.97672e-105
-4.98191e-111
-3.0107e-99
-5.48072e-105
-1.62643e-99
-2.97672e-105
-4.85586e-88
-1.04678e-93
-6.37516e-88
-1.38917e-93
-1.04678e-93
-2.29296e-99
-1.38917e-93
-3.0107e-99
-1.38917e-93
-3.0107e-99
-7.56983e-94
-1.62643e-99
-6.37516e-88
-1.38917e-93
-3.43109e-88
-7.56983e-94
5.15106e-135
-1.30785e-141
9.52178e-135
-2.41625e-141
-1.30785e-141
-9.16255e-147
-2.41625e-141
-1.69298e-146
-2.41625e-141
-1.69298e-146
-1.85593e-141
-1.30124e-146
9.52178e-135
-2.41625e-141
7.31395e-135
-1.85593e-141
-9.16255e-147
-1.48284e-152
-1.69298e-146
-2.73899e-152
-1.48284e-152
-1.45399e-158
-2.73899e-152
-2.68562e-158
-2.73899e-152
-2.68562e-158
-2.10548e-152
-2.06527e-158
-1.69298e-146
-2.73899e-152
-1.30124e-146
-2.10548e-152
-1.30124e-146
-2.10548e-152
-7.0749e-147
-1.14469e-152
-2.10548e-152
-2.06527e-158
-1.14469e-152
-1.12293e-158
-1.14469e-152
-1.12293e-158
-7.43284e-155
-6.8216e-161
-7.0749e-147
-1.14469e-152
-4.92059e-149
-7.43284e-155
7.31395e-135
-1.85593e-141
3.97616e-135
-1.00883e-141
-1.85593e-141
-1.30124e-146
-1.00883e-141
-7.0749e-147
-1.00883e-141
-7.0749e-147
-7.49557e-144
-4.92059e-149
3.97616e-135
-1.00883e-141
3.16881e-137
-7.49557e-144
-1.45399e-158
-6.94258e-165
-2.68562e-158
-1.28207e-164
-6.94258e-165
4.95149e-171
-1.28207e-164
9.1429e-171
-1.28207e-164
9.1429e-171
-9.86072e-165
7.03386e-171
-2.68562e-158
-1.28207e-164
-2.06527e-158
-9.86072e-165
4.95149e-171
1.46295e-176
9.1429e-171
2.70089e-176
1.46295e-176
1.59747e-182
2.70089e-176
2.94889e-182
2.70089e-176
2.94889e-182
2.07816e-176
2.26938e-182
9.1429e-171
2.70089e-176
7.03386e-171
2.07816e-176
7.03386e-171
2.07816e-176
3.82438e-171
1.12987e-176
2.07816e-176
2.26938e-182
1.12987e-176
1.23381e-182
1.12987e-176
1.23381e-182
5.60814e-179
5.72858e-185
3.82438e-171
1.12987e-176
2.03049e-173
5.60814e-179
-2.06527e-158
-9.86072e-165
-1.12293e-158
-5.36127e-165
-9.86072e-165
7.03386e-171
-5.36127e-165
3.82438e-171
-5.36127e-165
3.82438e-171
-3.04316e-167
2.03049e-173
-1.12293e-158
-5.36127e-165
-6.8216e-161
-3.04316e-167
-6.8216e-161
-3.04316e-167
1.11327e-158
5.31818e-165
-3.04316e-167
2.03049e-173
5.31818e-165
-3.79561e-171
5.31818e-165
-3.79561e-171
9.86048e-165
-7.03366e-171
1.11327e-158
5.31818e-165
2.06521e-158
9.86048e-165
2.03049e-173
5.60814e-179
-3.79561e-171
-1.12192e-176
5.60814e-179
5.72858e-185
-1.12192e-176
-1.22569e-182
-1.12192e-176
-1.22569e-182
-2.0781e-176
-2.26931e-182
-3.79561e-171
-1.12192e-176
-7.03366e-171
-2.0781e-176
-7.03366e-171
-2.0781e-176
-9.17116e-171
-2.70868e-176
-2.0781e-176
-2.26931e-182
-2.70868e-176
-2.95684e-182
-2.70868e-176
-2.95684e-182
-1.46847e-176
-1.6031e-182
-9.17116e-171
-2.70868e-176
-4.9715e-171
-1.46847e-176
2.06521e-158
9.86048e-165
2.69514e-158
1.28631e-164
9.86048e-165
-7.03366e-171
1.28631e-164
-9.17116e-171
1.28631e-164
-9.17116e-171
6.97264e-165
-4.9715e-171
2.69514e-158
1.28631e-164
1.46074e-158
6.97264e-165
3.16881e-137
-7.49557e-144
-3.93131e-135
9.9822e-142
-7.49557e-144
-4.92059e-149
9.9822e-142
7.00525e-147
9.9822e-142
7.00525e-147
1.85591e-141
1.30121e-146
-3.93131e-135
9.9822e-142
-7.31379e-135
1.85591e-141
-4.92059e-149
-7.43284e-155
7.00525e-147
1.13417e-152
-7.43284e-155
-6.8216e-161
1.13417e-152
1.11327e-158
1.13417e-152
1.11327e-158
2.10544e-152
2.06521e-158
7.00525e-147
1.13417e-152
1.30121e-146
2.10544e-152
1.30121e-146
2.10544e-152
1.69986e-146
2.74939e-152
2.10544e-152
2.06521e-158
2.74939e-152
2.69514e-158
2.74939e-152
2.69514e-158
1.4902e-152
1.46074e-158
1.69986e-146
2.74939e-152
9.2113e-147
1.4902e-152
-7.31379e-135
1.85591e-141
-9.56616e-135
2.42678e-141
1.85591e-141
1.30121e-146
2.42678e-141
1.69986e-146
2.42678e-141
1.69986e-146
1.31531e-141
9.2113e-147
-9.56616e-135
2.42678e-141
-5.1825e-135
1.31531e-141
1.59747e-182
7.84524e-189
2.94889e-182
1.44801e-188
7.84524e-189
-4.42843e-195
1.44801e-188
-8.17271e-195
1.44801e-188
-8.17271e-195
1.11448e-188
-6.29107e-195
2.94889e-182
1.44801e-188
2.26938e-182
1.11448e-188
-4.42843e-195
-1.25373e-200
-8.17271e-195
-2.31349e-200
-1.25373e-200
-1.13834e-206
-2.31349e-200
-2.10033e-206
-2.31349e-200
-2.10033e-206
-1.78102e-200
-1.61708e-206
-8.17271e-195
-2.31349e-200
-6.29107e-195
-1.78102e-200
-6.29107e-195
-1.78102e-200
-3.42e-195
-9.68166e-201
-1.78102e-200
-1.61708e-206
-9.68166e-201
-8.79004e-207
-9.68166e-201
-8.79004e-207
-3.67929e-203
-3.12576e-209
-3.42e-195
-9.68166e-201
-1.38929e-197
-3.67929e-203
2.26938e-182
1.11448e-188
1.23381e-182
6.05889e-189
1.11448e-188
-6.29107e-195
6.05889e-189
-3.42e-195
6.05889e-189
-3.42e-195
2.6309e-191
-1.38929e-197
1.23381e-182
6.05889e-189
5.72858e-185
2.6309e-191
-1.13834e-206
-2.9194e-213
-2.10033e-206
-5.38597e-213
-2.9194e-213
5.75493e-219
-5.38597e-213
1.06162e-218
-5.38597e-213
1.06162e-218
-4.14708e-213
8.17484e-219
-2.10033e-206
-5.38597e-213
-1.61708e-206
-4.14708e-213
5.75493e-219
8.40564e-225
1.06162e-218
1.55044e-224
8.40564e-225
4.44151e-231
1.55044e-224
8.19176e-231
1.55044e-224
8.19176e-231
1.19398e-224
6.30876e-231
1.06162e-218
1.55044e-224
8.17484e-219
1.19398e-224
8.17484e-219
1.19398e-224
4.44319e-219
6.48919e-225
1.19398e-224
6.30876e-231
6.48919e-225
3.42859e-231
6.48919e-225
3.42859e-231
1.89175e-227
9.35747e-234
4.44319e-219
6.48919e-225
1.3838e-221
1.89175e-227
-1.61708e-206
-4.14708e-213
-8.79004e-207
-2.25413e-213
-4.14708e-213
8.17484e-219
-2.25413e-213
4.44319e-219
-2.25413e-213
4.44319e-219
-7.50098e-216
1.3838e-221
-8.79004e-207
-2.25413e-213
-3.12576e-209
-7.50098e-216
-3.12576e-209
-7.50098e-216
8.74566e-207
2.24347e-213
-7.50098e-216
1.3838e-221
2.24347e-213
-4.42352e-219
2.24347e-213
-4.42352e-219
4.14691e-213
-8.17449e-219
8.74566e-207
2.24347e-213
1.61702e-206
4.14691e-213
1.3838e-221
1.89175e-227
-4.42352e-219
-6.46228e-225
1.89175e-227
9.35747e-234
-6.46228e-225
-3.41528e-231
-6.46228e-225
-3.41528e-231
-1.19393e-224
-6.30847e-231
-4.42352e-219
-6.46228e-225
-8.17449e-219
-1.19393e-224
-8.17449e-219
-1.19393e-224
-1.06351e-218
-1.55303e-224
-1.19393e-224
-6.30847e-231
-1.55303e-224
-8.20448e-231
-1.55303e-224
-8.20448e-231
-8.42391e-225
-4.45052e-231
-1.06351e-218
-1.55303e-224
-5.76833e-219
-8.42391e-225
1.61702e-206
4.14691e-213
2.10463e-206
5.39626e-213
4.14691e-213
-8.17449e-219
5.39626e-213
-1.06351e-218
5.39626e-213
-1.06351e-218
2.92669e-213
-5.76833e-219
2.10463e-206
5.39626e-213
1.14138e-206
2.92669e-213
5.72858e-185
2.6309e-191
-1.22569e-182
-6.02158e-189
2.6309e-191
-1.38929e-197
-6.02158e-189
3.40029e-195
-6.02158e-189
3.40029e-195
-1.11445e-188
6.29084e-195
-1.22569e-182
-6.02158e-189
-2.26931e-182
-1.11445e-188
-1.38929e-197
-3.67929e-203
3.40029e-195
9.62944e-201
-3.67929e-203
-3.12576e-209
9.62944e-201
8.74566e-207
9.62944e-201
8.74566e-207
1.78096e-200
1.61702e-206
3.40029e-195
9.62944e-201
6.29084e-195
1.78096e-200
6.29084e-195
1.78096e-200
8.19191e-195
2.31857e-200
1.78096e-200
1.61702e-206
2.31857e-200
2.10463e-206
2.31857e-200
2.10463e-206
1.25732e-200
1.14138e-206
8.19191e-195
2.31857e-200
4.44202e-195
1.25732e-200
-2.26931e-182
-1.11445e-188
-2.95684e-182
-1.45166e-188
-1.11445e-188
6.29084e-195
-1.45166e-188
8.19191e-195
-1.45166e-188
8.19191e-195
-7.87103e-189
4.44202e-195
-2.95684e-182
-1.45166e-188
-1.6031e-182
-7.87103e-189
4.44151e-231
-1.55925e-237
8.19176e-231
-2.87559e-237
-1.55925e-237
-4.53856e-243
-2.87559e-237
-8.36939e-243
-2.87559e-237
-8.36939e-243
-2.21471e-237
-6.44622e-243
8.19176e-231
-2.87559e-237
6.30876e-231
-2.21471e-237
-4.53856e-243
-3.14867e-249
-8.36939e-243
-5.8059e-249
-3.14867e-249
1.10533e-256
-5.8059e-249
2.03801e-256
-5.8059e-249
2.03801e-256
-4.47198e-249
1.56985e-256
-8.36939e-243
-5.8059e-249
-6.44622e-243
-4.47198e-249
-6.44622e-243
-4.47198e-249
-3.50297e-243
-2.43003e-249
-4.47198e-249
1.56985e-256
-2.43003e-249
8.53008e-257
-2.43003e-249
8.53008e-257
-5.44686e-252
1.79094e-259
-3.50297e-243
-2.43003e-249
-8.38304e-246
-5.44686e-252
6.30876e-231
-2.21471e-237
3.42859e-231
-1.20356e-237
-2.21471e-237
-6.44622e-243
-1.20356e-237
-3.50297e-243
-1.20356e-237
-3.50297e-243
-3.07558e-240
-8.38304e-246
3.42859e-231
-1.20356e-237
9.35747e-234
-3.07558e-240
1.10533e-256
2.04315e-261
2.03801e-256
3.76689e-261
2.04315e-261
1.61911e-267
3.76689e-261
2.98491e-267
3.76689e-261
2.98491e-267
2.90166e-261
2.29938e-267
2.03801e-256
3.76689e-261
1.56985e-256
2.90166e-261
1.61911e-267
1.05207e-274
2.98491e-267
1.93943e-274
1.05207e-274
-8.26092e-280
1.93943e-274
-1.52277e-279
1.93943e-274
-1.52277e-279
1.49405e-274
-1.17311e-279
2.98491e-267
1.93943e-274
2.29938e-267
1.49405e-274
2.29938e-267
1.49405e-274
1.24931e-267
8.11722e-275
1.49405e-274
-1.17311e-279
8.11722e-275
-6.37334e-280
8.11722e-275
-6.37334e-280
1.40302e-277
-1.03275e-282
1.24931e-267
8.11722e-275
2.30353e-270
1.40302e-277
1.56985e-256
2.90166e-261
8.53008e-257
1.57661e-261
2.90166e-261
2.29938e-267
1.57661e-261
1.24931e-267
1.57661e-261
1.24931e-267
3.10192e-264
2.30353e-270
8.53008e-257
1.57661e-261
1.79094e-259
3.10192e-264
1.79094e-259
3.10192e-264
-8.50452e-257
-1.57218e-261
3.10192e-264
2.30353e-270
-1.57218e-261
-1.24602e-267
-1.57218e-261
-1.24602e-267
-2.90152e-261
-2.29926e-267
-8.50452e-257
-1.57218e-261
-1.56977e-256
-2.90152e-261
2.30353e-270
1.40302e-277
-1.24602e-267
-8.09715e-275
1.40302e-277
-1.03275e-282
-8.09715e-275
6.35855e-280
-8.09715e-275
6.35855e-280
-1.49397e-274
1.17305e-279
-1.24602e-267
-8.09715e-275
-2.29926e-267
-1.49397e-274
-2.29926e-267
-1.49397e-274
-2.98797e-267
-1.94128e-274