<VTKFile type="UnstructuredGrid" version="0.1" byte_order="LittleEndian">
<UnstructuredGrid>
<Piece NumberOfPoints="2048" NumberOfCells="512">
<Points>
<DataArray type="Float64" NumberOfComponents="3" format="ascii">
0 0 0
0.125 0 0
0 0.125 0
0.125 0.125 0
0.125 0 0
0.25 0 0
0.125 0.125 0
0.25 0.125 0
0.125 0.125 0
0.25 0.125 0
0.125 0.25 0
0.25 0.25 0
0 0.125 0
0.125 0.125 0
0 0.25 0
0.125 0.25 0
0.25 0 0
0.375 0 0
0.25 0.125 0
0.375 0.125 0
0.375 0 0
0.5 0 0
0.375 0.125 0
0.5 0.125 0
0.375 0.125 0
0.5 0.125 0
0.375 0.25 0
0.5 0.25 0
0.25 0.125 0
0.375 0.125 0
0.25 0.25 0
0.375 0.25 0
0.25 0.25 0
0.375 0.25 0
0.25 0.375 0
0.375 0.375 0
0.375 0.25 0
0.5 0.25 0
0.375 0.375 0
0.5 0.375 0
0.375 0.375 0
0.5 0.375 0
0.375 0.5 0
0.5 0.5 0
0.25 0.375 0
0.375 0.375 0
0.25 0.5 0
0.375 0.5 0
0 0.25 0
0.125 0.25 0
0 0.375 0
0.125 0.375 0
0.125 0.25 0
0.25 0.25 0
0.125 0.375 0
0.25 0.375 0
0.125 0.375 0
0.25 0.375 0
0.125 0.5 0
0.25 0.5 0
0 0.375 0
0.125 0.375 0
0 0.5 0
0.125 0.5 0
0.5 0 0
0.625 0 0
0.5 0.125 0
0.625 0.125 0
0.625 0 0
0.75 0 0
0.625 0.125 0
0.75 0.125 0
0.625 0.125 0
0.75 0.125 0
0.625 0.25 0
0.75 0.25 0
0.5 0.125 0
0.625 0.125 0
0.5 0.25 0
0.625 0.25 0
0.75 0 0
0.875 0 0
0.75 0.125 0
0.875 0.125 0
0.875 0 0
1 0 0
0.875 0.125 0
1 0.125 0
0.875 0.125 0
1 0.125 0
0.875 0.25 0
1 0.25 0
0.75 0.125 0
0.875 0.125 0
0.75 0.25 0
0.875 0.25 0
0.75 0.25 0
0.875 0.25 0
0.75 0.375 0
0.875 0.375 0
0.875 0.25 0
1 0.25 0
0.875 0.375 0
1 0.375 0
0.875 0.375 0
1 0.375 0
0.875 0.5 0
1 0.5 0
0.75 0.375 0
0.875 0.375 0
0.75 0.5 0
0.875 0.5 0
0.5 0.25 0
0.625 0.25 0
0.5 0.375 0
0.625 0.375 0
0.625 0.25 0
0.75 0.25 0
0.625 0.375 0
0.75 0.375 0
0.625 0.375 0
0.75 0.375 0
0.625 0.5 0
0.75 0.5 0
0.5 0.375 0
0.625 0.375 0
0.5 0.5 0
0.625 0.5 0
0.5 0.5 0
0.625 0.5 0
0.5 0.625 0
0.625 0.625 0
0.625 0.5 0
0.75 0.5 0
0.625 0.625 0
0.75 0.625 0
0.625 0.625 0
0.75 0.625 0
0.625 0.75 0
0.75 0.75 0
0.5 0.625 0
0.625 0.625 0
0.5 0.75 0
0.625 0.75 0
0.75 0.5 0
0.875 0.5 0
0.75 0.625 0
0.875 0.625 0
0.875 0.5 0
1 0.5 0
0.875 0.625 0
1 0.625 0
0.875 0.625 0
1 0.625 0
0.875 0.75 0
1 0.75 0
0.75 0.625 0
0.875 0.625 0
0.75 0.75 0
0.875 0.75 0
0.75 0.75 0
0.875 0.75 0
0.75 0.875 0
0.875 0.875 0
0.875 0.75 0
1 0.75 0
0.875 0.875 0
1 0.875 0
0.875 0.875 0
1 0.875 0
0.875 1 0
1 1 0
0.75 0.875 0
0.875 0.875 0
0.75 1 0
0.875 1 0
0.5 0.75 0
0.625 0.75 0
0.5 0.875 0
0.625 0.875 0
0.625 0.75 0
0.75 0.75 0
0.625 0.875 0
0.75 0.875 0
0.625 0.875 0
0.75 0.875 0
0.625 1 0
0.75 1 0
0.5 0.875 0
0.625 0.875 0
0.5 1 0
0.625 1 0
0 0.5 0
0.125 0.5 0
0 0.625 0
0.125 0.625 0
0.125 0.5 0
0.25 0.5 0
0.125 0.625 0
0.25 0.625 0
0.125 0.625 0
0.25 0.625 0
0.125 0.75 0
0.25 0.75 0
0 0.625 0
0.125 0.625 0
0 0.75 0
0.125 0.75 0
0.25 0.5 0
0.375 0.5 0
0.25 0.625 0
0.375 0.625 0
0.375 0.5 0
0.5 0.5 0
0.375 0.625 0
0.5 0.625 0
0.375 0.625 0
0.5 0.625 0
0.375 0.75 0
0.5 0.75 0
0.25 0.625 0
0.375 0.625 0
0.25 0.75 0
0.375 0.75 0
0.25 0.75 0
0.375 0.75 0
0.25 0.875 0
0.375 0.875 0
0.375 0.75 0
0.5 0.75 0
0.375 0.875 0
0.5 0.875 0
0.375 0.875 0
0.5 0.875 0
0.375 1 0
0.5 1 0
0.25 0.875 0
0.375 0.875 0
0.25 1 0
0.375 1 0
0 0.75 0
0.125 0.75 0
0 0.875 0
0.125 0.875 0
0.125 0.75 0
0.25 0.75 0
0.125 0.875 0
0.25 0.875 0
0.125 0.875 0
0.25 0.875 0
0.125 1 0
0.25 1 0
0 0.875 0
0.125 0.875 0
0 1 0
0.125 1 0
1 0 0
1.125 0 0
1 0.125 0
1.125 0.125 0
1.125 0 0
1.25 0 0
1.125 0.125 0
1.25 0.125 0
1.125 0.125 0
1.25 0.125 0
1.125 0.25 0
1.25 0.25 0
1 0.125 0
1.125 0.125 0
1 0.25 0
1.125 0.25 0
1.25 0 0
1.375 0 0
1.25 0.125 0
1.375 0.125 0
1.375 0 0
1.5 0 0
1.375 0.125 0
1.5 0.125 0
1.375 0.125 0
1.5 0.125 0
1.375 0.25 0
1.5 0.25 0
1.25 0.125 0
1.375 0.125 0
1.25 0.25 0
1.375 0.25 0
1.25 0.25 0
1.375 0.25 0
1.25 0.375 0
1.375 0.375 0
1.375 0.25 0
1.5 0.25 0
1.375 0.375 0
1.5 0.375 0
1.375 0.375 0
1.5 0.375 0
1.375 0.5 0
1.5 0.5 0
1.25 0.375 0
1.375 0.375 0
1.25 0.5 0
1.375 0.5 0
1 0.25 0
1.125 0.25 0
1 0.375 0
1.125 0.375 0
1.125 0.25 0
1.25 0.25 0
1.125 0.375 0
1.25 0.375 0
1.125 0.375 0
1.25 0.375 0
1.125 0.5 0
1.25 0.5 0
1 0.375 0
1.125 0.375 0
1 0.5 0
1.125 0.5 0
1.5 0 0
1.625 0 0
1.5 0.125 0
1.625 0.125 0
1.625 0 0
1.75 0 0
1.625 0.125 0
1.75 0.125 0
1.625 0.125 0
1.75 0.125 0
1.625 0.25 0
1.75 0.25 0
1.5 0.125 0
1.625 0.125 0
1.5 0.25 0
1.625 0.25 0
1.75 0 0
1.875 0 0
1.75 0.125 0
1.875 0.125 0
1.875 0 0
2 0 0
1.875 0.125 0
2 0.125 0
1.875 0.125 0
2 0.125 0
1.875 0.25 0
2 0.25 0
1.75 0.125 0
1.875 0.125 0
1.75 0.25 0
1.875 0.25 0
1.75 0.25 0
1.875 0.25 0
1.75 0.375 0
1.875 0.375 0
1.875 0.25 0
2 0.25 0
1.875 0.375 0
2 0.375 0
1.875 0.375 0
2 0.375 0
1.875 0.5 0
2 0.5 0
1.75 0.375 0
1.875 0.375 0
1.75 0.5 0
1.875 0.5 0
1.5 0.25 0
1.625 0.25 0
1.5 0.375 0
1.625 0.375 0
1.625 0.25 0
1.75 0.25 0
1.625 0.375 0
1.75 0.375 0
1.625 0.375 0
1.75 0.375 0
1.625 0.5 0
1.75 0.5 0
1.5 0.375 0
1.625 0.375 0
1.5 0.5 0
1.625 0.5 0
1.5 0.5 0
1.625 0.5 0
1.5 0.625 0
1.625 0.625 0
1.625 0.5 0
1.75 0.5 0
1.625 0.625 0
1.75 0.625 0
1.625 0.625 0
1.75 0.625 0
1.625 0.75 0
1.75 0.75 0
1.5 0.625 0
1.625 0.625 0
1.5 0.75 0
1.625 0.75 0
1.75 0.5 0
1.875 0.5 0
1.75 0.625 0
1.875 0.625 0
1.875 0.5 0
2 0.5 0
1.875 0.625 0
2 0.625 0
1.875 0.625 0
2 0.625 0
1.875 0.75 0
2 0.75 0
1.75 0.625 0
1.875 0.625 0
1.75 0.75 0
1.875 0.75 0
1.75 0.75 0
1.875 0.75 0
1.75 0.875 0
1.875 0.875 0
1.875 0.75 0
2 0.75 0
1.875 0.875 0
2 0.875 0
1.875 0.875 0
2 0.875 0
1.875 1 0
2 1 0
1.75 0.875 0
1.875 0.875 0
1.75 1 0
1.875 1 0
1.5 0.75 0
1.625 0.75 0
1.5 0.875 0
1.625 0.875 0
1.625 0.75 0
1.75 0.75 0
1.625 0.875 0
1.75 0.875 0
1.625 0.875 0
1.75 0.875 0
1.625 1 0
1.75 1 0
1.5 0.875 0
1.625 0.875 0
1.5 1 0
1.625 1 0
1 0.5 0
1.125 0.5 0
1 0.625 0
1.125 0.625 0
1.125 0.5 0
1.25 0.5 0
1.125 0.625 0
1.25 0.625 0
1.125 0.625 0
1.25 0.625 0
1.125 0.75 0
1.25 0.75 0
1 0.625 0
1.125 0.625 0
1 0.75 0
1.125 0.75 0
1.25 0.5 0
1.375 0.5 0
1.25 0.625 0
1.375 0.625 0
1.375 0.5 0
1.5 0.5 0
1.375 0.625 0
1.5 0.625 0
1.375 0.625 0
1.5 0.625 0
1.375 0.75 0
1.5 0.75 0
1.25 0.625 0
1.375 0.625 0
1.25 0.75 0
1.375 0.75 0
1.25 0.75 0
1.375 0.75 0
1.25 0.875 0
1.375 0.875 0
1.375 0.75 0
1.5 0.75 0
1.375 0.875 0
1.5 0.875 0
1.375 0.875 0
1.5 0.875 0
1.375 1 0
1.5 1 0
1.25 0.875 0
1.375 0.875 0
1.25 1 0
1.375 1 0
1 0.75 0
1.125 0.75 0
1 0.875 0
1.125 0.875 0
1.125 0.75 0
1.25 0.75 0
1.125 0.875 0
1.25 0.875 0
1.125 0.875 0
1.25 0.875 0
1.125 1 0
1.25 1 0
1 0.875 0
1.125 0.875 0
1 1 0
1.125 1 0
2 0 0
2.125 0 0
2 0.125 0
2.125 0.125 0
2.125 0 0
2.25 0 0
2.125 0.125 0
2.25 0.125 0
2.125 0.125 0
2.25 0.125 0
2.125 0.25 0
2.25 0.25 0
2 0.125 0
2.125 0.125 0
2 0.25 0
2.125 0.25 0
2.25 0 0
2.375 0 0
2.25 0.125 0
2.375 0.125 0
2.375 0 0
2.5 0 0
2.375 0.125 0
2.5 0.125 0
2.375 0.125 0
2.5 0.125 0
2.375 0.25 0
2.5 0.25 0
2.25 0.125 0
2.375 0.125 0
2.25 0.25 0
2.375 0.25 0
2.25 0.25 0
2.375 0.25 0
2.25 0.375 0
2.375 0.375 0
2.375 0.25 0
2.5 0.25 0
2.375 0.375 0
2.5 0.375 0
2.375 0.375 0
2.5 0.375 0
2.375 0.5 0
2.5 0.5 0
2.25 0.375 0
2.375 0.375 0
2.25 0.5 0
2.375 0.5 0
2 0.25 0
2.125 0.25 0
2 0.375 0
2.125 0.375 0
2.125 0.25 0
2.25 0.25 0
2.125 0.375 0
2.25 0.375 0
2.125 0.375 0
2.25 0.375 0
2.125 0.5 0
2.25 0.5 0
2 0.375 0
2.125 0.375 0
2 0.5 0
2.125 0.5 0
2.5 0 0
2.625 0 0
2.5 0.125 0
2.625 0.125 0
2.625 0 0
2.75 0 0
2.625 0.125 0
2.75 0.125 0
2.625 0.125 0
2.75 0.125 0
2.625 0.25 0
2.75 0.25 0
2.5 0.125 0
2.625 0.125 0
2.5 0.25 0
2.625 0.25 0
2.75 0 0
2.875 0 0
2.75 0.125 0
2.875 0.125 0
2.875 0 0
3 0 0
2.875 0.125 0
3 0.125 0
2.875 0.125 0
3 0.125 0
2.875 0.25 0
3 0.25 0
2.75 0.125 0
2.875 0.125 0
2.75 0.25 0
2.875 0.25 0
2.75 0.25 0
2.875 0.25 0
2.75 0.375 0
2.875 0.375 0
2.875 0.25 0
3 0.25 0
2.875 0.375 0
3 0.375 0
2.875 0.375 0
3 0.375 0
2.875 0.5 0
3 0.5 0
2.75 0.375 0
2.875 0.375 0
2.75 0.5 0
2.875 0.5 0
2.5 0.25 0
2.625 0.25 0
2.5 0.375 0
2.625 0.375 0
2.625 0.25 0
2.75 0.25 0
2.625 0.375 0
2.75 0.375 0
2.625 0.375 0
2.75 0.375 0
2.625 0.5 0
2.75 0.5 0
2.5 0.375 0
2.625 0.375 0
2.5 0.5 0
2.625 0.5 0
2.5 0.5 0
2.625 0.5 0
2.5 0.625 0
2.625 0.625 0
2.625 0.5 0
2.75 0.5 0
2.625 0.625 0
2.75 0.625 0
2.625 0.625 0
2.75 0.625 0
2.625 0.75 0
2.75 0.75 0
2.5 0.625 0
2.625 0.625 0
2.5 0.75 0
2.625 0.75 0
2.75 0.5 0
2.875 0.5 0
2.75 0.625 0
2.875 0.625 0
2.875 0.5 0
3 0.5 0
2.875 0.625 0
3 0.625 0
2.875 0.625 0
3 0.625 0
2.875 0.75 0
3 0.75 0
2.75 0.625 0
2.875 0.625 0
2.75 0.75 0
2.875 0.75 0
2.75 0.75 0
2.875 0.75 0
2.75 0.875 0
2.875 0.875 0
2.875 0.75 0
3 0.75 0
2.875 0.875 0
3 0.875 0
2.875 0.875 0
3 0.875 0
2.875 1 0
3 1 0
2.75 0.875 0
2.875 0.875 0
2.75 1 0
2.875 1 0
2.5 0.75 0
2.625 0.75 0
2.5 0.875 0
2.625 0.875 0
2.625 0.75 0
2.75 0.75 0
2.625 0.875 0
2.75 0.875 0
2.625 0.875 0
2.75 0.875 0
2.625 1 0
2.75 1 0
2.5 0.875 0
2.625 0.875 0
2.5 1 0
2.625 1 0
2 0.5 0
2.125 0.5 0
2 0.625 0
2.125 0.625 0
2.125 0.5 0
2.25 0.5 0
2.125 0.625 0
2.25 0.625 0
2.125 0.625 0
2.25 0.625 0
2.125 0.75 0
2.25 0.75 0
2 0.625 0
2.125 0.625 0
2 0.75 0
2.125 0.75 0
2.25 0.5 0
2.375 0.5 0
2.25 0.625 0
2.375 0.625 0
2.375 0.5 0
2.5 0.5 0
2.375 0.625 0
2.5 0.625 0
2.375 0.625 0
2.5 0.625 0
2.375 0.75 0
2.5 0.75 0
2.25 0.625 0
2.375 0.625 0
2.25 0.75 0
2.375 0.75 0
2.25 0.75 0
2.375 0.75 0
2.25 0.875 0
2.375 0.875 0
2.375 0.75 0
2.5 0.75 0
2.375 0.875 0
2.5 0.875 0
2.375 0.875 0
2.5 0.875 0
2.375 1 0
2.5 1 0
2.25 0.875 0
2.375 0.875 0
2.25 1 0
2.375 1 0
2 0.75 0
2.125 0.75 0
2 0.875 0
2.125 0.875 0
2.125 0.75 0
2.25 0.75 0
2.125 0.875 0
2.25 0.875 0
2.125 0.875 0
2.25 0.875 0
2.125 1 0
2.25 1 0
2 0.875 0
2.125 0.875 0
2 1 0
2.125 1 0
3 0 0
3.125 0 0
3 0.125 0
3.125 0.125 0
3.125 0 0
3.25 0 0
3.125 0.125 0
3.25 0.125 0
3.125 0.125 0
3.25 0.125 0
3.125 0.25 0
3.25 0.25 0
3 0.125 0
3.125 0.125 0
3 0.25 0
3.125 0.25 0
3.25 0 0
3.375 0 0
3.25 0.125 0
3.375 0.125 0
3.375 0 0
3.5 0 0
3.375 0.125 0
3.5 0.125 0
3.375 0.125 0
3.5 0.125 0
3.375 0.25 0
3.5 0.25 0
3.25 0.125 0
3.375 0.125 0
3.25 0.25 0
3.375 0.25 0
3.25 0.25 0
3.375 0.25 0
3.25 0.375 0
3.375 0.375 0
3.375 0.25 0
3.5 0.25 0
3.375 0.375 0
3.5 0.375 0
3.375 0.375 0
3.5 0.375 0
3.375 0.5 0
3.5 0.5 0
3.25 0.375 0
3.375 0.375 0
3.25 0.5 0
[...]
<CellData Scalars="attribute">
<DataArray type="Int32" Name="attribute" format="ascii">
1
1
1
1
1
1
1
1
1
1
1
1
1
1
1
1
1
1
1
1
1
1
1
1
1
1
1
1
1
1
1
1
1
1
1
1
1
1
1
1
1
1
1
1
1
1
1
1
1
1
1
1
1
1
1
1
1
1
1
1
1
1
1
1
1
1
1
1
1
1
1
1
1
1
1
1
1
1
1
1
1
1
1
1
1
1
1
1
1
1
1
1
1
1
1
1
1
1
1
1
1
1
1
1
1
1
1
1
1
1
1
1
1
1
1
1
1
1
1
1
1
1
1
1
1
1
1
1
1
1
1
1
1
1
1
1
1
1
1
1
1
1
1
1
1
1
1
1
1
1
1
1
1
1
1
1
1
1
1
1
1
1
1
1
1
1
1
1
1
1
1
1
1
1
1
1
1
1
1
1
1
1
1
1
1
1
1
1
1
1
1
1
1
1
1
1
1
1
1
1
1
1
1
1
1
1
1
1
1
1
1
1
1
1
1
1
1
1
1
1
1
1
1
1
1
1
1
1
1
1
1
1
1
1
1
1
1
1
1
1
1
1
1
1
1
1
1
1
1
1
1
1
1
1
1
1
2
2
2
2
2
2
2
2
2
2
2
2
2
2
2
2
2
2
2
2
2
2
2
2
2
2
2
2
2
2
2
2
2
2
2
2
2
2
2
2
2
2
2
2
2
2
2
2
2
2
2
2
2
2
2
2
2
2
2
2
2
2
2
2
2
2
2
2
2
2
2
2
2
2
2
2
2
2
2
2
2
2
2
2
2
2
2
2
2
2
2
2
2
2
2
2
2
2
2
2
2
2
2
2
2
2
2
2
2
2
2
2
2
2
2
2
2
2
2
2
2
2
2
2
2
2
2
2
2
2
2
2
2
2
2
2
2
2
2
2
2
2
2
2
2
2
2
2
2
2
2
2
2
2
2
2
2
2
2
2
2
2
2
2
2
2
2
2
2
2
2
2
2
2
2
2
2
2
2
2
2
2
2
2
2
2
2
2
2
2
2
2
2
2
2
2
2
2
2
2
2
2
2
2
2
2
2
2
2
2
2
2
2
2
2
2
2
2
2
2
2
2
2
2
2
2
2
2
2
2
2
2
2
2
2
2
2
2
2
2
2
2
2
2
2
2
2
2
2
2
2
2
2
2
2
2
</DataArray>
</CellData>
<PointData >
<DataArray type="Float64" Name="Pressure" NumberOfComponents="1" format="ascii" >
-2.29298e-05
-3.12579e-09
-3.75216e-05
-5.17422e-09
-3.12579e-09
1.82951e-14
-5.17422e-09
3.16807e-14
-5.17422e-09
3.16807e-14
-3.47366e-09
2.15133e-14
-3.75216e-05
-5.17422e-09
-2.50144e-05
-3.47366e-09
1.82951e-14
-6.73721e-20
3.16807e-14
-1.20274e-19
-6.73721e-20
2.43823e-25
-1.20274e-19
4.51255e-25
-1.20274e-19
4.51255e-25
-8.374e-20
3.22687e-25
3.16807e-14
-1.20274e-19
2.15133e-14
-8.374e-20
2.15133e-14
-8.374e-20
1.10244e-14
-4.27894e-20
-8.374e-20
3.22687e-25
-4.27894e-20
1.6506e-25
-4.27894e-20
1.6506e-25
-1.41525e-21
5.23317e-27
1.10244e-14
-4.27894e-20
3.88205e-16
-1.41525e-21
-2.50144e-05
-3.47366e-09
-1.25073e-05
-1.7639e-09
-3.47366e-09
2.15133e-14
-1.7639e-09
1.10244e-14
-1.7639e-09
1.10244e-14
-3.90606e-11
3.88205e-16
-1.25073e-05
-1.7639e-09
-4.80733e-11
-3.90606e-11
2.43823e-25
-4.37956e-31
4.51255e-25
-8.3997e-31
-4.37956e-31
1.28527e-36
-8.3997e-31
2.47899e-36
-8.3997e-31
2.47899e-36
-6.22142e-31
1.86252e-36
4.51255e-25
-8.3997e-31
3.22687e-25
-6.22142e-31
1.28527e-36
-8.61998e-43
2.47899e-36
-1.83196e-42
-8.61998e-43
3.29959e-48
-1.83196e-42
6.45997e-48
-1.83196e-42
6.45997e-48
-1.48042e-42
5.00218e-48
2.47899e-36
-1.83196e-42
1.86252e-36
-1.48042e-42
1.86252e-36
-1.48042e-42
9.68264e-37
-7.80509e-43
-1.48042e-42
5.00218e-48
-7.80509e-43
2.65635e-48
-7.80509e-43
2.65635e-48
-2.24822e-44
6.76267e-50
9.68264e-37
-7.80509e-43
2.77632e-38
-2.24822e-44
3.22687e-25
-6.22142e-31
1.6506e-25
-3.20188e-31
-6.22142e-31
1.86252e-36
-3.20188e-31
9.68264e-37
-3.20188e-31
9.68264e-37
-9.77266e-33
2.77632e-38
1.6506e-25
-3.20188e-31
5.23317e-27
-9.77266e-33
5.23317e-27
-9.77266e-33
-1.56821e-25
3.04956e-31
-9.77266e-33
2.77632e-38
3.04956e-31
-9.25906e-37
3.04956e-31
-9.25906e-37
6.19913e-31
-1.8576e-36
-1.56821e-25
3.04956e-31
-3.2117e-25
6.19913e-31
2.77632e-38
-2.24822e-44
-9.25906e-37
7.46446e-43
-2.24822e-44
6.76267e-50
7.46446e-43
-2.55608e-48
7.46446e-43
-2.55608e-48
1.47643e-42
-4.99408e-48
-9.25906e-37
7.46446e-43
-1.8576e-36
1.47643e-42
-1.8576e-36
1.47643e-42
-2.51854e-36
1.85985e-42
1.47643e-42
-4.99408e-48
1.85985e-42
-6.55035e-48
1.85985e-42
-6.55035e-48
8.80797e-43
-3.36346e-48
-2.51854e-36
1.85985e-42
-1.31419e-36
8.80797e-43
-3.2117e-25
6.19913e-31
-4.59295e-25
8.54259e-31
6.19913e-31
-1.8576e-36
8.54259e-31
-2.51854e-36
8.54259e-31
-2.51854e-36
4.48579e-31
-1.31419e-36
-4.59295e-25
8.54259e-31
-2.5023e-25
4.48579e-31
-4.80733e-11
-3.90606e-11
1.25072e-05
1.70086e-09
-3.90606e-11
3.88205e-16
1.70086e-09
-1.03993e-14
1.70086e-09
-1.03993e-14
3.45586e-09
-2.13415e-14
1.25072e-05
1.70086e-09
2.50144e-05
3.45586e-09
3.88205e-16
-1.41525e-21
-1.03993e-14
4.05332e-20
-1.41525e-21
5.23317e-27
4.05332e-20
-1.56821e-25
4.05332e-20
-1.56821e-25
8.32151e-20
-3.2117e-25
-1.03993e-14
4.05332e-20
-2.13415e-14
8.32151e-20
-2.13415e-14
8.32151e-20
-3.22662e-14
1.2251e-19
8.32151e-20
-3.2117e-25
1.2251e-19
-4.59295e-25
1.2251e-19
-4.59295e-25
6.92761e-20
-2.5023e-25
-3.22662e-14
1.2251e-19
-1.88947e-14
6.92761e-20
2.50144e-05
3.45586e-09
3.75217e-05
5.23243e-09
3.45586e-09
-2.13415e-14
5.23243e-09
-3.22662e-14
5.23243e-09
-3.22662e-14
3.18747e-09
-1.88947e-14
3.75217e-05
5.23243e-09
2.29299e-05
3.18747e-09
3.29959e-48
2.95694e-55
6.45997e-48
9.48318e-56
2.95694e-55
4.06821e-60
9.48318e-56
7.89468e-60
9.48318e-56
7.89468e-60
-2.08652e-55
6.16141e-60
6.45997e-48
9.48318e-56
5.00218e-48
-2.08652e-55
4.06821e-60
1.44069e-66
7.89468e-60
2.43691e-66
1.44069e-66
6.35191e-73
2.43691e-66
1.21052e-72
2.43691e-66
1.21052e-72
1.68111e-66
9.39678e-73
7.89468e-60
2.43691e-66
6.16141e-60
1.68111e-66
6.16141e-60
1.68111e-66
3.32064e-60
8.76132e-67
1.68111e-66
9.39678e-73
8.76132e-67
5.09514e-73
8.76132e-67
5.09514e-73
1.47161e-68
9.69329e-75
3.32064e-60
8.76132e-67
7.35712e-62
1.47161e-68
5.00218e-48
-2.08652e-55
2.65635e-48
-1.39919e-55
-2.08652e-55
6.16141e-60
-1.39919e-55
3.32064e-60
-1.39919e-55
3.32064e-60
-7.68841e-57
7.35712e-62
2.65635e-48
-1.39919e-55
6.76267e-50
-7.68841e-57
6.35191e-73
-1.33826e-78
1.21052e-72
-2.39863e-78
-1.33826e-78
-2.8915e-84
-2.39863e-78
-5.43111e-84
-2.39863e-78
-5.43111e-84
-1.76206e-78
-4.18685e-84
1.21052e-72
-2.39863e-78
9.39678e-73
-1.76206e-78
-2.8915e-84
-1.93491e-90
-5.43111e-84
-3.53274e-90
-1.93491e-90
-1.42008e-97
-3.53274e-90
-2.64543e-97
-3.53274e-90
-2.64543e-97
-2.65364e-90
-2.0316e-97
-5.43111e-84
-3.53274e-90
-4.18685e-84
-2.65364e-90
-4.18685e-84
-2.65364e-90
-2.27332e-84
-1.42666e-90
-2.65364e-90
-2.0316e-97
-1.42666e-90
-1.10333e-97
-1.42666e-90
-1.10333e-97
-2.05172e-92
-1.54588e-99
-2.27332e-84
-1.42666e-90
-3.70383e-86
-2.05172e-92
9.39678e-73
-1.76206e-78
5.09514e-73
-9.38201e-79
-1.76206e-78
-4.18685e-84
-9.38201e-79
-2.27332e-84
-9.38201e-79
-2.27332e-84
-1.50729e-80
-3.70383e-86
5.09514e-73
-9.38201e-79
9.69329e-75
-1.50729e-80
9.69329e-75
-1.50729e-80
-4.95562e-73
9.16874e-79
-1.50729e-80
-3.70383e-86
9.16874e-79
2.22038e-84
9.16874e-79
2.22038e-84
1.76264e-78
4.18539e-84
-4.95562e-73
9.16874e-79
-9.39085e-73
1.76264e-78
-3.70383e-86
-2.05172e-92
2.22038e-84
1.39764e-90
-2.05172e-92
-1.54588e-99
1.39764e-90
1.08134e-97
1.39764e-90
1.08134e-97
2.65406e-90
2.03123e-97
2.22038e-84
1.39764e-90
4.18539e-84
2.65406e-90
4.18539e-84
2.65406e-90
5.48108e-84
3.56333e-90
2.65406e-90
2.03123e-97
3.56333e-90
2.66667e-97
3.56333e-90
2.66667e-97
1.95671e-90
1.43515e-97
5.48108e-84
3.56333e-90
2.9269e-84
1.95671e-90
-9.39085e-73
1.76264e-78
-1.22331e-72
2.42242e-78
1.76264e-78
4.18539e-84
2.42242e-78
5.48108e-84
2.42242e-78
5.48108e-84
1.35543e-78
2.9269e-84
-1.22331e-72
2.42242e-78
-6.44214e-73
1.35543e-78
6.76267e-50
-7.68841e-57
-2.55608e-48
1.27902e-55
-7.68841e-57
7.35712e-62
1.27902e-55
-3.21356e-60
1.27902e-55
-3.21356e-60
2.04873e-55
-6.15502e-60
-2.55608e-48
1.27902e-55
-4.99408e-48
2.04873e-55
7.35712e-62
1.47161e-68
-3.21356e-60
-8.55412e-67
1.47161e-68
9.69329e-75
-8.55412e-67
-4.95562e-73
-8.55412e-67
-4.95562e-73
-1.68268e-66
-9.39085e-73
-3.21356e-60
-8.55412e-67
-6.15502e-60
-1.68268e-66
-6.15502e-60
-1.68268e-66
-7.99068e-60
-2.46441e-66
-1.68268e-66
-9.39085e-73
-2.46441e-66
-1.22331e-72
-2.46441e-66
-1.22331e-72
-1.46134e-66
-6.44214e-73
-7.99068e-60
-2.46441e-66
-4.13565e-60
-1.46134e-66
-4.99408e-48
2.04873e-55
-6.55035e-48
-9.52388e-56
2.04873e-55
-6.15502e-60
-9.52388e-56
-7.99068e-60
-9.52388e-56
-7.99068e-60
-2.98556e-55
-4.13565e-60
-6.55035e-48
-9.52388e-56
-3.36346e-48
-2.98556e-55
-1.42008e-97
1.39308e-102
-2.64543e-97
2.56233e-102
1.39308e-102
1.51021e-108
2.56233e-102
2.80171e-108
2.56233e-102
2.80171e-108
1.9452e-102
2.14895e-108
-2.64543e-97
2.56233e-102
-2.0316e-97
1.9452e-102
1.51021e-108
4.10288e-115
2.80171e-108
7.56933e-115
4.10288e-115
-5.7099e-121
7.56933e-115
-1.0572e-120
7.56933e-115
-1.0572e-120
5.77831e-115
-8.1099e-121
2.80171e-108
7.56933e-115
2.14895e-108
5.77831e-115
2.14895e-108
5.77831e-115
1.1673e-108
3.13195e-115
5.77831e-115
-8.1099e-121
3.13195e-115
-4.40664e-121
3.13195e-115
-4.40664e-121
3.48293e-117
-4.63015e-123
1.1673e-108
3.13195e-115
1.41341e-110
3.48293e-117
-2.0316e-97
1.9452e-102
-1.10333e-97
1.05129e-102
1.9452e-102
2.14895e-108
1.05129e-102
1.1673e-108
1.05129e-102
1.1673e-108
1.33323e-104
1.41341e-110
-1.10333e-97
1.05129e-102
-1.54588e-99
1.33323e-104
-5.7099e-121
-6.6919e-127
-1.0572e-120
-1.23599e-126
-6.6919e-127
-1.75616e-133
-1.23599e-126
-3.24825e-133
-1.23599e-126
-3.24825e-133
-9.46485e-127
-2.49333e-133
-1.0572e-120
-1.23599e-126
-8.1099e-121
-9.46485e-127
-1.75616e-133
2.1523e-139
-3.24825e-133
3.97652e-139
2.1523e-139
2.1116e-145
3.97652e-139
3.90332e-145
3.97652e-139
3.90332e-145
3.05078e-139
2.99825e-145
-3.24825e-133
3.97652e-139
-2.49333e-133
3.05078e-139
-2.49333e-133
3.05078e-139
-1.35519e-133
1.6576e-139
3.05078e-139
2.99825e-145
1.6576e-139
1.62997e-145
1.6576e-139
1.62997e-145
1.40948e-141
1.29901e-147
-1.35519e-133
1.6576e-139
-1.23902e-135
1.40948e-141
-8.1099e-121
-9.46485e-127
-4.40664e-121
-5.13825e-127
-9.46485e-127
-2.49333e-133
-5.13825e-127
-1.35519e-133
-5.13825e-127
-1.35519e-133
-4.99886e-129
-1.23902e-135
-4.40664e-121
-5.13825e-127
-4.63015e-123
-4.99886e-129
-4.63015e-123
-4.99886e-129
4.34103e-121
5.06757e-127
-4.99886e-129
-1.23902e-135
5.06757e-127
1.33764e-133
5.06757e-127
1.33764e-133
9.46497e-127
2.49326e-133
4.34103e-121
5.06757e-127
8.10954e-121
9.46497e-127
-1.23902e-135
1.40948e-141
1.33764e-133
-1.63766e-139
1.40948e-141
1.29901e-147
-1.63766e-139
-1.61158e-145
-1.63766e-139
-1.61158e-145
-3.05077e-139
-2.99819e-145
1.33764e-133
-1.63766e-139
2.49326e-133
-3.05077e-139
2.49326e-133
-3.05077e-139
3.2656e-133
-3.99639e-139
-3.05077e-139
-2.99819e-145
-3.99639e-139
-3.92151e-145
-3.99639e-139
-3.92151e-145
-2.16636e-139
-2.12449e-145
3.2656e-133
-3.99639e-139
1.76846e-133
-2.16636e-139
8.10954e-121
9.46497e-127
1.06367e-120
1.24307e-126
9.46497e-127
2.49326e-133
1.24307e-126
3.2656e-133
1.24307e-126
3.2656e-133
6.74207e-127
1.76846e-133
1.06367e-120
1.24307e-126
5.75578e-121
6.74207e-127
-1.54588e-99
1.33323e-104
1.08134e-97
-1.03244e-102
1.33323e-104
1.41341e-110
-1.03244e-102
-1.14725e-108
-1.03244e-102
-1.14725e-108
-1.94536e-102
-2.14876e-108
1.08134e-97
-1.03244e-102
2.03123e-97
-1.94536e-102
1.41341e-110
3.48293e-117
-1.14725e-108
-3.08271e-115
3.48293e-117
-4.63015e-123
-3.08271e-115
4.34103e-121
-3.08271e-115
4.34103e-121
-5.77853e-115
8.10954e-121
-1.14725e-108
-3.08271e-115
-2.14876e-108
-5.77853e-115
-2.14876e-108
-5.77853e-115
-2.82136e-108
-7.61912e-115
-5.77853e-115
8.10954e-121
-7.61912e-115
1.06367e-120
-7.61912e-115
1.06367e-120
-4.13815e-115
5.75578e-121
-2.82136e-108
-7.61912e-115
-1.52414e-108
-4.13815e-115
2.03123e-97
-1.94536e-102
2.66667e-97
-2.58167e-102
-1.94536e-102
-2.14876e-108
-2.58167e-102
-2.82136e-108
-2.58167e-102
-2.82136e-108
-1.4068e-102
-1.52414e-108
2.66667e-97
-2.58167e-102
1.43515e-97
-1.4068e-102
2.1116e-145
2.59751e-152
3.90332e-145
4.79886e-152
2.59751e-152
-7.09817e-158
4.79886e-152
-1.31154e-157
4.79886e-152
-1.31154e-157
3.686e-152
-1.00806e-157
3.90332e-145
4.79886e-152
2.99825e-145
3.686e-152
-7.09817e-158
-4.37856e-164
-1.31154e-157
-8.08777e-164
-4.37856e-164
5.35343e-171
-8.08777e-164
9.88812e-171
-8.08777e-164
9.88812e-171
-6.21711e-164
7.60406e-171
-1.31154e-157
-8.08777e-164
-1.00806e-157
-6.21711e-164
-1.00806e-157
-6.21711e-164
-5.48088e-158
-3.38006e-164
-6.21711e-164
7.60406e-171
-3.38006e-164
4.1345e-171
-3.38006e-164
4.1345e-171
-2.1948e-166
2.5116e-173
-5.48088e-158
-3.38006e-164
-3.81197e-160
-2.1948e-166
2.99825e-145
3.686e-152
1.62997e-145
2.0036e-152
3.686e-152
-1.00806e-157
2.0036e-152
-5.48088e-158
2.0036e-152
-5.48088e-158
1.48874e-154
-3.81197e-160
1.62997e-145
2.0036e-152
1.29901e-147
1.48874e-154
5.35343e-171
1.65178e-176
9.88812e-171
3.05029e-176
1.65178e-176
4.64046e-183
3.05029e-176
8.56857e-183
3.05029e-176
8.56857e-183
2.34606e-176
6.59201e-183
9.88812e-171
3.05029e-176
7.60406e-171
2.34606e-176
4.64046e-183
-3.09563e-189
8.56857e-183
-5.71511e-189
-3.09563e-189
-2.24419e-195
-5.71511e-189
-4.14272e-195
-5.71511e-189
-4.14272e-195
-4.39741e-189
-3.18812e-195
8.56857e-183
-5.71511e-189
6.59201e-183
-4.39741e-189
6.59201e-183
-4.39741e-189
3.58414e-183
-2.39081e-189
-4.39741e-189
-3.18812e-195
-2.39081e-189
-1.7333e-195
-2.39081e-189
-1.7333e-195
-1.1867e-191
-8.04775e-198
3.58414e-183
-2.39081e-189
1.90298e-185
-1.1867e-191
7.60406e-171
2.34606e-176
4.1345e-171
1.27555e-176
2.34606e-176
6.59201e-183
1.27555e-176
3.58414e-183
1.27555e-176
3.58414e-183
7.24026e-179
1.90298e-185
4.1345e-171
1.27555e-176
2.5116e-173
7.24026e-179
2.5116e-173
7.24026e-179
-4.09894e-171
-1.2653e-176
7.24026e-179
1.90298e-185
-1.2653e-176
-3.55718e-183
-1.2653e-176
-3.55718e-183
-2.346e-176
-6.59182e-183
-4.09894e-171
-1.2653e-176
-7.60387e-171
-2.346e-176
1.90298e-185
-1.1867e-191
-3.55718e-183
2.374e-189
-1.1867e-191
-8.04775e-198
2.374e-189
1.72189e-195
2.374e-189
1.72189e-195
4.39728e-189
3.18801e-195
-3.55718e-183
2.374e-189
-6.59182e-183
4.39728e-189
-6.59182e-183
4.39728e-189
-8.59505e-183
5.73161e-189
4.39728e-189
3.18801e-195
5.73161e-189
4.15388e-195
5.73161e-189
4.15388e-195
3.10731e-189
2.25209e-195
-8.59505e-183
5.73161e-189
-4.65921e-183
3.10731e-189
-7.60387e-171
-2.346e-176
-9.92318e-171
-3.06039e-176
-2.346e-176
-6.59182e-183
-3.06039e-176
-8.59505e-183
-3.06039e-176
-8.59505e-183
-1.65893e-176
-4.65921e-183
-9.92318e-171
-3.06039e-176
-5.37825e-171
-1.65893e-176
1.29901e-147
1.48874e-154
-1.61158e-145
-1.98253e-152
1.48874e-154
-3.81197e-160
-1.98253e-152
5.42692e-158
-1.98253e-152
5.42692e-158
-3.68596e-152
1.00804e-157
-1.61158e-145
-1.98253e-152
-2.99819e-145
-3.68596e-152
-3.81197e-160
-2.1948e-166
5.42692e-158
3.349e-164
-2.1948e-166
2.5116e-173
3.349e-164
-4.09894e-171
3.349e-164
-4.09894e-171
6.21699e-164
-7.60387e-171
5.42692e-158
3.349e-164
1.00804e-157
6.21699e-164
1.00804e-157
6.21699e-164
1.31687e-157
8.11849e-164
6.21699e-164
-7.60387e-171
8.11849e-164
-9.92318e-171
8.11849e-164
-9.92318e-171
4.40031e-164
-5.37825e-171
1.31687e-157
8.11849e-164
7.13593e-158
4.40031e-164
-2.99819e-145
-3.68596e-152
-3.92151e-145
-4.81977e-152
-3.68596e-152
1.00804e-157
-4.81977e-152
1.31687e-157
-4.81977e-152
1.31687e-157
-2.61231e-152
7.13593e-158
-3.92151e-145
-4.81977e-152
-2.12449e-145
-2.61231e-152
-2.24419e-195
1.03962e-202
-4.14272e-195
1.91885e-202
1.03962e-202
5.5305e-208
1.91885e-202
1.02066e-207
1.91885e-202
1.02066e-207
1.47687e-202
7.85667e-208
-4.14272e-195
1.91885e-202
-3.18812e-195
1.47687e-202
5.5305e-208
1.16952e-214
1.02066e-207
2.1581e-214
1.16952e-214
-8.5612e-221
2.1581e-214
-1.57962e-220
2.1581e-214
-1.57962e-220
1.6614e-214
-1.21617e-220
1.02066e-207
2.1581e-214
7.85667e-208
1.6614e-214
7.85667e-208
1.6614e-214
4.27111e-208
9.03135e-215
1.6614e-214
-1.21617e-220
9.03135e-215
-6.6108e-221
9.03135e-215
-6.6108e-221
3.43219e-217
-2.35082e-223
4.27111e-208
9.03135e-215
1.73506e-210
3.43219e-217
-3.18812e-195
1.47687e-202
-1.7333e-195
8.029e-203
1.47687e-202
7.85667e-208
8.029e-203
4.27111e-208
8.029e-203
4.27111e-208
3.48631e-205
1.73506e-210
-1.7333e-195
8.029e-203
-8.04775e-198
3.48631e-205
-8.5612e-221
-4.03429e-227
-1.57962e-220
-7.44281e-227
-4.03429e-227
7.3706e-234
-7.44281e-227
1.35966e-233
-7.44281e-227
1.35966e-233
-5.73081e-227
1.04699e-233
-1.57962e-220
-7.44281e-227
-1.21617e-220
-5.73081e-227
7.3706e-234
7.93713e-240
1.35966e-233
1.46403e-239
7.93713e-240
1.30701e-247
1.46403e-239
2.4106e-247
1.46403e-239
2.4106e-247
1.12743e-239
1.85648e-247
1.35966e-233
1.46403e-239
1.04699e-233
1.12743e-239
1.04699e-233
1.12743e-239
5.69059e-234
6.12749e-240
1.12743e-239
1.85648e-247
6.12749e-240
1.00893e-247
6.12749e-240
1.00893e-247
1.78631e-242
2.75352e-250
5.69059e-234
6.12749e-240
1.77231e-236
1.78631e-242
-1.21617e-220
-5.73081e-227
-6.6108e-221
-3.11496e-227
-5.73081e-227
1.04699e-233
-3.11496e-227
5.69059e-234
-3.11496e-227
5.69059e-234
-1.03654e-229
1.77231e-236
-6.6108e-221
-3.11496e-227
-2.35082e-223
-1.03654e-229
-2.35082e-223
-1.03654e-229
6.57742e-221
3.10023e-227
-1.03654e-229
1.77231e-236
3.10023e-227
-5.6654e-234
3.10023e-227
-5.6654e-234
5.73057e-227
-1.04694e-233
6.57742e-221
3.10023e-227
1.21612e-220
5.73057e-227
1.77231e-236
1.78631e-242
-5.6654e-234
-6.10209e-240
1.78631e-242
2.75352e-250
-6.10209e-240
-1.00501e-247
-6.10209e-240
-1.00501e-247
-1.12738e-239
-1.85639e-247
-5.6654e-234
-6.10209e-240
-1.04694e-233
-1.12738e-239
-1.04694e-233
-1.12738e-239
-1.36208e-233
-1.46646e-239
-1.12738e-239
-1.85639e-247
-1.46646e-239
-2.41434e-247
-1.46646e-239
-2.41434e-247
-7.95438e-240
-1.30966e-247
-1.36208e-233
-1.46646e-239
-7.38776e-234
-7.95438e-240
1.21612e-220
5.73057e-227
1.58285e-220
7.45703e-227
5.73057e-227
-1.04694e-233
7.45703e-227
-1.36208e-233
7.45703e-227
-1.36208e-233
4.04436e-227
-7.38776e-234
1.58285e-220
7.45703e-227
8.58409e-221
4.04436e-227
-8.04775e-198
3.48631e-205
1.72189e-195
-7.97956e-203
3.48631e-205
1.73506e-210
-7.97956e-203
-4.24649e-208
-7.97956e-203
-4.24649e-208
-1.47682e-202
-7.85639e-208
1.72189e-195
-7.97956e-203
3.18801e-195
-1.47682e-202
1.73506e-210
3.43219e-217
-4.24649e-208
-8.98264e-215
3.43219e-217
-2.35082e-223
-8.98264e-215
6.57742e-221
-8.98264e-215
6.57742e-221
-1.66133e-214
1.21612e-220
-4.24649e-208
-8.98264e-215
-7.85639e-208
-1.66133e-214
-7.85639e-208
-1.66133e-214
-1.02306e-207
-2.16283e-214
-1.66133e-214
1.21612e-220
-2.16283e-214
1.58285e-220
-2.16283e-214
1.58285e-220
-1.17287e-214
8.58409e-221
-1.02306e-207
-2.16283e-214
-5.54748e-208
-1.17287e-214
3.18801e-195
-1.47682e-202
4.15388e-195
-1.92367e-202
-1.47682e-202
-7.85639e-208
-1.92367e-202
-1.02306e-207
-1.92367e-202
-1.02306e-207
-1.04303e-202
-5.54748e-208
4.15388e-195
-1.92367e-202
2.25209e-195
-1.04303e-202
1.30701e-247
-1.10815e-252
2.4106e-247
-2.04367e-252
-1.10815e-252
-1.58776e-259
-2.04367e-252
-2.92792e-259
-2.04367e-252
-2.92792e-259
-1.57398e-252
-2.25513e-259
2.4106e-247
-2.04367e-252
1.85648e-247
-1.57398e-252
-1.58776e-259
1.16523e-265
-2.92792e-259
2.14859e-265
1.16523e-265
2.94207e-272
2.14859e-265
5.42455e-272
2.14859e-265
5.42455e-272
1.65495e-265
4.17842e-272
-2.92792e-259
2.14859e-265
-2.25513e-259
1.65495e-265
-2.25513e-259
1.65495e-265
-1.22547e-259
8.99282e-266
1.65495e-265
4.17842e-272
8.99282e-266
2.27042e-272
8.99282e-266
2.27042e-272
2.01573e-268
4.76749e-275
-1.22547e-259
8.99282e-266
-2.93273e-262
2.01573e-268
1.85648e-247
-1.57398e-252
1.00893e-247
-8.55365e-253
-1.57398e-252
-2.25513e-259
-8.55365e-253
-1.22547e-259
-8.55365e-253
-1.22547e-259
-2.18584e-255
-2.93273e-262
1.00893e-247
-8.55365e-253
2.75352e-250
-2.18584e-255
2.94207e-272
-9.41116e-279
5.42455e-272
-1.7351e-278
-9.41116e-279
-3.47423e-285
-1.7351e-278
-6.40492e-285
-1.7351e-278
-6.40492e-285
-1.33657e-278
-4.93392e-285
5.42455e-272
-1.7351e-278
4.17842e-272
-1.33657e-278
-3.47423e-285
5.87558e-292
-6.40492e-285
1.08313e-291
5.87558e-292
3.01317e-298
1.08313e-291
5.55429e-298
1.08313e-291
5.55429e-298
8.34398e-292
4.27891e-298
-6.40492e-285
1.08313e-291
-4.93392e-285
8.34398e-292
-4.93392e-285
8.34398e-292
-2.68072e-285
4.53332e-292
8.34398e-292
4.27891e-298
4.53332e-292
2.32467e-298
4.53332e-292
2.32467e-298
7.83512e-295
3.76699e-301
-2.68072e-285
4.53332e-292
-4.94286e-288
7.83512e-295
4.17842e-272
-1.33657e-278
2.27042e-272
-7.26216e-279
-1.33657e-278
-4.93392e-285
-7.26216e-279
-2.68072e-285
-7.26216e-279
-2.68072e-285
-1.42882e-281
-4.94286e-288
2.27042e-272
-7.26216e-279
4.76749e-275
-1.42882e-281
4.76749e-275
-1.42882e-281
-2.26362e-272
7.24176e-279
-1.42882e-281
-4.94286e-288
7.24176e-279
2.67366e-285
7.24176e-279
2.67366e-285
1.3365e-278
4.93367e-285
-2.26362e-272
7.24176e-279
-4.17822e-272
1.3365e-278
-4.94286e-288
7.83512e-295
2.67366e-285
-4.52211e-292
7.83512e-295
3.76699e-301
-4.52211e-292
-2.31928e-298
-4.52211e-292
-2.31928e-298
-8.34354e-292
-4.27869e-298
2.67366e-285
-4.52211e-292
4.93367e-285
-8.34354e-292
4.93367e-285
-8.34354e-292