<VTKFile type="UnstructuredGrid" version="0.1" byte_order="LittleEndian">
<UnstructuredGrid>
<Piece NumberOfPoints="2048" NumberOfCells="512">
<Points>
<DataArray type="Float64" NumberOfComponents="3" format="ascii">
0 0 0
0.125 0 0
0 0.125 0
0.125 0.125 0
0.125 0 0
0.25 0 0
0.125 0.125 0
0.25 0.125 0
0.125 0.125 0
0.25 0.125 0
0.125 0.25 0
0.25 0.25 0
0 0.125 0
0.125 0.125 0
0 0.25 0
0.125 0.25 0
0.25 0 0
0.375 0 0
0.25 0.125 0
0.375 0.125 0
0.375 0 0
0.5 0 0
0.375 0.125 0
0.5 0.125 0
0.375 0.125 0
0.5 0.125 0
0.375 0.25 0
0.5 0.25 0
0.25 0.125 0
0.375 0.125 0
0.25 0.25 0
0.375 0.25 0
0.25 0.25 0
0.375 0.25 0
0.25 0.375 0
0.375 0.375 0
0.375 0.25 0
0.5 0.25 0
0.375 0.375 0
0.5 0.375 0
0.375 0.375 0
0.5 0.375 0
0.375 0.5 0
0.5 0.5 0
0.25 0.375 0
0.375 0.375 0
0.25 0.5 0
0.375 0.5 0
0 0.25 0
0.125 0.25 0
0 0.375 0
0.125 0.375 0
0.125 0.25 0
0.25 0.25 0
0.125 0.375 0
0.25 0.375 0
0.125 0.375 0
0.25 0.375 0
0.125 0.5 0
0.25 0.5 0
0 0.375 0
0.125 0.375 0
0 0.5 0
0.125 0.5 0
0.5 0 0
0.625 0 0
0.5 0.125 0
0.625 0.125 0
0.625 0 0
0.75 0 0
0.625 0.125 0
0.75 0.125 0
0.625 0.125 0
0.75 0.125 0
0.625 0.25 0
0.75 0.25 0
0.5 0.125 0
0.625 0.125 0
0.5 0.25 0
0.625 0.25 0
0.75 0 0
0.875 0 0
0.75 0.125 0
0.875 0.125 0
0.875 0 0
1 0 0
0.875 0.125 0
1 0.125 0
0.875 0.125 0
1 0.125 0
0.875 0.25 0
1 0.25 0
0.75 0.125 0
0.875 0.125 0
0.75 0.25 0
0.875 0.25 0
0.75 0.25 0
0.875 0.25 0
0.75 0.375 0
0.875 0.375 0
0.875 0.25 0
1 0.25 0
0.875 0.375 0
1 0.375 0
0.875 0.375 0
1 0.375 0
0.875 0.5 0
1 0.5 0
0.75 0.375 0
0.875 0.375 0
0.75 0.5 0
0.875 0.5 0
0.5 0.25 0
0.625 0.25 0
0.5 0.375 0
0.625 0.375 0
0.625 0.25 0
0.75 0.25 0
0.625 0.375 0
0.75 0.375 0
0.625 0.375 0
0.75 0.375 0
0.625 0.5 0
0.75 0.5 0
0.5 0.375 0
0.625 0.375 0
0.5 0.5 0
0.625 0.5 0
0.5 0.5 0
0.625 0.5 0
0.5 0.625 0
0.625 0.625 0
0.625 0.5 0
0.75 0.5 0
0.625 0.625 0
0.75 0.625 0
0.625 0.625 0
0.75 0.625 0
0.625 0.75 0
0.75 0.75 0
0.5 0.625 0
0.625 0.625 0
0.5 0.75 0
0.625 0.75 0
0.75 0.5 0
0.875 0.5 0
0.75 0.625 0
0.875 0.625 0
0.875 0.5 0
1 0.5 0
0.875 0.625 0
1 0.625 0
0.875 0.625 0
1 0.625 0
0.875 0.75 0
1 0.75 0
0.75 0.625 0
0.875 0.625 0
0.75 0.75 0
0.875 0.75 0
0.75 0.75 0
0.875 0.75 0
0.75 0.875 0
0.875 0.875 0
0.875 0.75 0
1 0.75 0
0.875 0.875 0
1 0.875 0
0.875 0.875 0
1 0.875 0
0.875 1 0
1 1 0
0.75 0.875 0
0.875 0.875 0
0.75 1 0
0.875 1 0
0.5 0.75 0
0.625 0.75 0
0.5 0.875 0
0.625 0.875 0
0.625 0.75 0
0.75 0.75 0
0.625 0.875 0
0.75 0.875 0
0.625 0.875 0
0.75 0.875 0
0.625 1 0
0.75 1 0
0.5 0.875 0
0.625 0.875 0
0.5 1 0
0.625 1 0
0 0.5 0
0.125 0.5 0
0 0.625 0
0.125 0.625 0
0.125 0.5 0
0.25 0.5 0
0.125 0.625 0
0.25 0.625 0
0.125 0.625 0
0.25 0.625 0
0.125 0.75 0
0.25 0.75 0
0 0.625 0
0.125 0.625 0
0 0.75 0
0.125 0.75 0
0.25 0.5 0
0.375 0.5 0
0.25 0.625 0
0.375 0.625 0
0.375 0.5 0
0.5 0.5 0
0.375 0.625 0
0.5 0.625 0
0.375 0.625 0
0.5 0.625 0
0.375 0.75 0
0.5 0.75 0
0.25 0.625 0
0.375 0.625 0
0.25 0.75 0
0.375 0.75 0
0.25 0.75 0
0.375 0.75 0
0.25 0.875 0
0.375 0.875 0
0.375 0.75 0
0.5 0.75 0
0.375 0.875 0
0.5 0.875 0
0.375 0.875 0
0.5 0.875 0
0.375 1 0
0.5 1 0
0.25 0.875 0
0.375 0.875 0
0.25 1 0
0.375 1 0
0 0.75 0
0.125 0.75 0
0 0.875 0
0.125 0.875 0
0.125 0.75 0
0.25 0.75 0
0.125 0.875 0
0.25 0.875 0
0.125 0.875 0
0.25 0.875 0
0.125 1 0
0.25 1 0
0 0.875 0
0.125 0.875 0
0 1 0
0.125 1 0
1 0 0
1.125 0 0
1 0.125 0
1.125 0.125 0
1.125 0 0
1.25 0 0
1.125 0.125 0
1.25 0.125 0
1.125 0.125 0
1.25 0.125 0
1.125 0.25 0
1.25 0.25 0
1 0.125 0
1.125 0.125 0
1 0.25 0
1.125 0.25 0
1.25 0 0
1.375 0 0
1.25 0.125 0
1.375 0.125 0
1.375 0 0
1.5 0 0
1.375 0.125 0
1.5 0.125 0
1.375 0.125 0
1.5 0.125 0
1.375 0.25 0
1.5 0.25 0
1.25 0.125 0
1.375 0.125 0
1.25 0.25 0
1.375 0.25 0
1.25 0.25 0
1.375 0.25 0
1.25 0.375 0
1.375 0.375 0
1.375 0.25 0
1.5 0.25 0
1.375 0.375 0
1.5 0.375 0
1.375 0.375 0
1.5 0.375 0
1.375 0.5 0
1.5 0.5 0
1.25 0.375 0
1.375 0.375 0
1.25 0.5 0
1.375 0.5 0
1 0.25 0
1.125 0.25 0
1 0.375 0
1.125 0.375 0
1.125 0.25 0
1.25 0.25 0
1.125 0.375 0
1.25 0.375 0
1.125 0.375 0
1.25 0.375 0
1.125 0.5 0
1.25 0.5 0
1 0.375 0
1.125 0.375 0
1 0.5 0
1.125 0.5 0
1.5 0 0
1.625 0 0
1.5 0.125 0
1.625 0.125 0
1.625 0 0
1.75 0 0
1.625 0.125 0
1.75 0.125 0
1.625 0.125 0
1.75 0.125 0
1.625 0.25 0
1.75 0.25 0
1.5 0.125 0
1.625 0.125 0
1.5 0.25 0
1.625 0.25 0
1.75 0 0
1.875 0 0
1.75 0.125 0
1.875 0.125 0
1.875 0 0
2 0 0
1.875 0.125 0
2 0.125 0
1.875 0.125 0
2 0.125 0
1.875 0.25 0
2 0.25 0
1.75 0.125 0
1.875 0.125 0
1.75 0.25 0
1.875 0.25 0
1.75 0.25 0
1.875 0.25 0
1.75 0.375 0
1.875 0.375 0
1.875 0.25 0
2 0.25 0
1.875 0.375 0
2 0.375 0
1.875 0.375 0
2 0.375 0
1.875 0.5 0
2 0.5 0
1.75 0.375 0
1.875 0.375 0
1.75 0.5 0
1.875 0.5 0
1.5 0.25 0
1.625 0.25 0
1.5 0.375 0
1.625 0.375 0
1.625 0.25 0
1.75 0.25 0
1.625 0.375 0
1.75 0.375 0
1.625 0.375 0
1.75 0.375 0
1.625 0.5 0
1.75 0.5 0
1.5 0.375 0
1.625 0.375 0
1.5 0.5 0
1.625 0.5 0
1.5 0.5 0
1.625 0.5 0
1.5 0.625 0
1.625 0.625 0
1.625 0.5 0
1.75 0.5 0
1.625 0.625 0
1.75 0.625 0
1.625 0.625 0
1.75 0.625 0
1.625 0.75 0
1.75 0.75 0
1.5 0.625 0
1.625 0.625 0
1.5 0.75 0
1.625 0.75 0
1.75 0.5 0
1.875 0.5 0
1.75 0.625 0
1.875 0.625 0
1.875 0.5 0
2 0.5 0
1.875 0.625 0
2 0.625 0
1.875 0.625 0
2 0.625 0
1.875 0.75 0
2 0.75 0
1.75 0.625 0
1.875 0.625 0
1.75 0.75 0
1.875 0.75 0
1.75 0.75 0
1.875 0.75 0
1.75 0.875 0
1.875 0.875 0
1.875 0.75 0
2 0.75 0
1.875 0.875 0
2 0.875 0
1.875 0.875 0
2 0.875 0
1.875 1 0
2 1 0
1.75 0.875 0
1.875 0.875 0
1.75 1 0
1.875 1 0
1.5 0.75 0
1.625 0.75 0
1.5 0.875 0
1.625 0.875 0
1.625 0.75 0
1.75 0.75 0
1.625 0.875 0
1.75 0.875 0
1.625 0.875 0
1.75 0.875 0
1.625 1 0
1.75 1 0
1.5 0.875 0
1.625 0.875 0
1.5 1 0
1.625 1 0
1 0.5 0
1.125 0.5 0
1 0.625 0
1.125 0.625 0
1.125 0.5 0
1.25 0.5 0
1.125 0.625 0
1.25 0.625 0
1.125 0.625 0
1.25 0.625 0
1.125 0.75 0
1.25 0.75 0
1 0.625 0
1.125 0.625 0
1 0.75 0
1.125 0.75 0
1.25 0.5 0
1.375 0.5 0
1.25 0.625 0
1.375 0.625 0
1.375 0.5 0
1.5 0.5 0
1.375 0.625 0
1.5 0.625 0
1.375 0.625 0
1.5 0.625 0
1.375 0.75 0
1.5 0.75 0
1.25 0.625 0
1.375 0.625 0
1.25 0.75 0
1.375 0.75 0
1.25 0.75 0
1.375 0.75 0
1.25 0.875 0
1.375 0.875 0
1.375 0.75 0
1.5 0.75 0
1.375 0.875 0
1.5 0.875 0
1.375 0.875 0
1.5 0.875 0
1.375 1 0
1.5 1 0
1.25 0.875 0
1.375 0.875 0
1.25 1 0
1.375 1 0
1 0.75 0
1.125 0.75 0
1 0.875 0
1.125 0.875 0
1.125 0.75 0
1.25 0.75 0
1.125 0.875 0
1.25 0.875 0
1.125 0.875 0
1.25 0.875 0
1.125 1 0
1.25 1 0
1 0.875 0
1.125 0.875 0
1 1 0
1.125 1 0
2 0 0
2.125 0 0
2 0.125 0
2.125 0.125 0
2.125 0 0
2.25 0 0
2.125 0.125 0
2.25 0.125 0
2.125 0.125 0
2.25 0.125 0
2.125 0.25 0
2.25 0.25 0
2 0.125 0
2.125 0.125 0
2 0.25 0
2.125 0.25 0
2.25 0 0
2.375 0 0
2.25 0.125 0
2.375 0.125 0
2.375 0 0
2.5 0 0
2.375 0.125 0
2.5 0.125 0
2.375 0.125 0
2.5 0.125 0
2.375 0.25 0
2.5 0.25 0
2.25 0.125 0
2.375 0.125 0
2.25 0.25 0
2.375 0.25 0
2.25 0.25 0
2.375 0.25 0
2.25 0.375 0
2.375 0.375 0
2.375 0.25 0
2.5 0.25 0
2.375 0.375 0
2.5 0.375 0
2.375 0.375 0
2.5 0.375 0
2.375 0.5 0
2.5 0.5 0
2.25 0.375 0
2.375 0.375 0
2.25 0.5 0
2.375 0.5 0
2 0.25 0
2.125 0.25 0
2 0.375 0
2.125 0.375 0
2.125 0.25 0
2.25 0.25 0
2.125 0.375 0
2.25 0.375 0
2.125 0.375 0
2.25 0.375 0
2.125 0.5 0
2.25 0.5 0
2 0.375 0
2.125 0.375 0
2 0.5 0
2.125 0.5 0
2.5 0 0
2.625 0 0
2.5 0.125 0
2.625 0.125 0
2.625 0 0
2.75 0 0
2.625 0.125 0
2.75 0.125 0
2.625 0.125 0
2.75 0.125 0
2.625 0.25 0
2.75 0.25 0
2.5 0.125 0
2.625 0.125 0
2.5 0.25 0
2.625 0.25 0
2.75 0 0
2.875 0 0
2.75 0.125 0
2.875 0.125 0
2.875 0 0
3 0 0
2.875 0.125 0
3 0.125 0
2.875 0.125 0
3 0.125 0
2.875 0.25 0
3 0.25 0
2.75 0.125 0
2.875 0.125 0
2.75 0.25 0
2.875 0.25 0
2.75 0.25 0
2.875 0.25 0
2.75 0.375 0
2.875 0.375 0
2.875 0.25 0
3 0.25 0
2.875 0.375 0
3 0.375 0
2.875 0.375 0
3 0.375 0
2.875 0.5 0
3 0.5 0
2.75 0.375 0
2.875 0.375 0
2.75 0.5 0
2.875 0.5 0
2.5 0.25 0
2.625 0.25 0
2.5 0.375 0
2.625 0.375 0
2.625 0.25 0
2.75 0.25 0
2.625 0.375 0
2.75 0.375 0
2.625 0.375 0
2.75 0.375 0
2.625 0.5 0
2.75 0.5 0
2.5 0.375 0
2.625 0.375 0
2.5 0.5 0
2.625 0.5 0
2.5 0.5 0
2.625 0.5 0
2.5 0.625 0
2.625 0.625 0
2.625 0.5 0
2.75 0.5 0
2.625 0.625 0
2.75 0.625 0
2.625 0.625 0
2.75 0.625 0
2.625 0.75 0
2.75 0.75 0
2.5 0.625 0
2.625 0.625 0
2.5 0.75 0
2.625 0.75 0
2.75 0.5 0
2.875 0.5 0
2.75 0.625 0
2.875 0.625 0
2.875 0.5 0
3 0.5 0
2.875 0.625 0
3 0.625 0
2.875 0.625 0
3 0.625 0
2.875 0.75 0
3 0.75 0
2.75 0.625 0
2.875 0.625 0
2.75 0.75 0
2.875 0.75 0
2.75 0.75 0
2.875 0.75 0
2.75 0.875 0
2.875 0.875 0
2.875 0.75 0
3 0.75 0
2.875 0.875 0
3 0.875 0
2.875 0.875 0
3 0.875 0
2.875 1 0
3 1 0
2.75 0.875 0
2.875 0.875 0
2.75 1 0
2.875 1 0
2.5 0.75 0
2.625 0.75 0
2.5 0.875 0
2.625 0.875 0
2.625 0.75 0
2.75 0.75 0
2.625 0.875 0
2.75 0.875 0
2.625 0.875 0
2.75 0.875 0
2.625 1 0
2.75 1 0
2.5 0.875 0
2.625 0.875 0
2.5 1 0
2.625 1 0
2 0.5 0
2.125 0.5 0
2 0.625 0
2.125 0.625 0
2.125 0.5 0
2.25 0.5 0
2.125 0.625 0
2.25 0.625 0
2.125 0.625 0
2.25 0.625 0
2.125 0.75 0
2.25 0.75 0
2 0.625 0
2.125 0.625 0
2 0.75 0
2.125 0.75 0
2.25 0.5 0
2.375 0.5 0
2.25 0.625 0
2.375 0.625 0
2.375 0.5 0
2.5 0.5 0
2.375 0.625 0
2.5 0.625 0
2.375 0.625 0
2.5 0.625 0
2.375 0.75 0
2.5 0.75 0
2.25 0.625 0
2.375 0.625 0
2.25 0.75 0
2.375 0.75 0
2.25 0.75 0
2.375 0.75 0
2.25 0.875 0
2.375 0.875 0
2.375 0.75 0
2.5 0.75 0
2.375 0.875 0
2.5 0.875 0
2.375 0.875 0
2.5 0.875 0
2.375 1 0
2.5 1 0
2.25 0.875 0
2.375 0.875 0
2.25 1 0
2.375 1 0
2 0.75 0
2.125 0.75 0
2 0.875 0
2.125 0.875 0
2.125 0.75 0
2.25 0.75 0
2.125 0.875 0
2.25 0.875 0
2.125 0.875 0
2.25 0.875 0
2.125 1 0
2.25 1 0
2 0.875 0
2.125 0.875 0
2 1 0
2.125 1 0
3 0 0
3.125 0 0
3 0.125 0
3.125 0.125 0
3.125 0 0
3.25 0 0
3.125 0.125 0
3.25 0.125 0
3.125 0.125 0
3.25 0.125 0
3.125 0.25 0
3.25 0.25 0
3 0.125 0
3.125 0.125 0
3 0.25 0
3.125 0.25 0
3.25 0 0
3.375 0 0
3.25 0.125 0
3.375 0.125 0
3.375 0 0
3.5 0 0
3.375 0.125 0
3.5 0.125 0
3.375 0.125 0
3.5 0.125 0
3.375 0.25 0
3.5 0.25 0
3.25 0.125 0
3.375 0.125 0
3.25 0.25 0
3.375 0.25 0
3.25 0.25 0
3.375 0.25 0
3.25 0.375 0
3.375 0.375 0
3.375 0.25 0
3.5 0.25 0
3.375 0.375 0
3.5 0.375 0
3.375 0.375 0
3.5 0.375 0
3.375 0.5 0
3.5 0.5 0
3.25 0.375 0
3.375 0.375 0
3.25 0.5 0
[...]
<CellData Scalars="attribute">
<DataArray type="Int32" Name="attribute" format="ascii">
1
1
1
1
1
1
1
1
1
1
1
1
1
1
1
1
1
1
1
1
1
1
1
1
1
1
1
1
1
1
1
1
1
1
1
1
1
1
1
1
1
1
1
1
1
1
1
1
1
1
1
1
1
1
1
1
1
1
1
1
1
1
1
1
1
1
1
1
1
1
1
1
1
1
1
1
1
1
1
1
1
1
1
1
1
1
1
1
1
1
1
1
1
1
1
1
1
1
1
1
1
1
1
1
1
1
1
1
1
1
1
1
1
1
1
1
1
1
1
1
1
1
1
1
1
1
1
1
1
1
1
1
1
1
1
1
1
1
1
1
1
1
1
1
1
1
1
1
1
1
1
1
1
1
1
1
1
1
1
1
1
1
1
1
1
1
1
1
1
1
1
1
1
1
1
1
1
1
1
1
1
1
1
1
1
1
1
1
1
1
1
1
1
1
1
1
1
1
1
1
1
1
1
1
1
1
1
1
1
1
1
1
1
1
1
1
1
1
1
1
1
1
1
1
1
1
1
1
1
1
1
1
1
1
1
1
1
1
1
1
1
1
1
1
1
1
1
1
1
1
1
1
1
1
1
1
2
2
2
2
2
2
2
2
2
2
2
2
2
2
2
2
2
2
2
2
2
2
2
2
2
2
2
2
2
2
2
2
2
2
2
2
2
2
2
2
2
2
2
2
2
2
2
2
2
2
2
2
2
2
2
2
2
2
2
2
2
2
2
2
2
2
2
2
2
2
2
2
2
2
2
2
2
2
2
2
2
2
2
2
2
2
2
2
2
2
2
2
2
2
2
2
2
2
2
2
2
2
2
2
2
2
2
2
2
2
2
2
2
2
2
2
2
2
2
2
2
2
2
2
2
2
2
2
2
2
2
2
2
2
2
2
2
2
2
2
2
2
2
2
2
2
2
2
2
2
2
2
2
2
2
2
2
2
2
2
2
2
2
2
2
2
2
2
2
2
2
2
2
2
2
2
2
2
2
2
2
2
2
2
2
2
2
2
2
2
2
2
2
2
2
2
2
2
2
2
2
2
2
2
2
2
2
2
2
2
2
2
2
2
2
2
2
2
2
2
2
2
2
2
2
2
2
2
2
2
2
2
2
2
2
2
2
2
2
2
2
2
2
2
2
2
2
2
2
2
2
2
2
2
2
2
</DataArray>
</CellData>
<PointData >
<DataArray type="Float64" Name="Pressure" NumberOfComponents="1" format="ascii" >
-0.000337206
-4.12396e-07
-0.000551805
-6.82668e-07
-4.12396e-07
2.0618e-11
-6.82668e-07
3.57052e-11
-6.82668e-07
3.57052e-11
-4.58306e-07
2.42467e-11
-0.000551805
-6.82668e-07
-0.000367874
-4.58306e-07
2.0618e-11
-6.56928e-16
3.57052e-11
-1.17292e-15
-6.56928e-16
2.12903e-20
-1.17292e-15
3.94107e-20
-1.17292e-15
3.94107e-20
-8.16694e-16
2.8185e-20
3.57052e-11
-1.17292e-15
2.42467e-11
-8.16694e-16
2.42467e-11
-8.16694e-16
1.24255e-11
-4.17321e-16
-8.16694e-16
2.8185e-20
-4.17321e-16
1.44174e-20
-4.17321e-16
1.44174e-20
-1.38144e-17
4.57357e-22
1.24255e-11
-4.17321e-16
4.38073e-13
-1.38144e-17
-0.000367874
-4.58306e-07
-0.000183942
-2.32726e-07
-4.58306e-07
2.42467e-11
-2.32726e-07
1.24255e-11
-2.32726e-07
1.24255e-11
-5.15443e-09
4.38073e-13
-0.000183942
-2.32726e-07
-6.34245e-09
-5.15443e-09
2.12903e-20
-3.58407e-25
3.94107e-20
-6.87613e-25
-3.58407e-25
1.04767e-29
-6.87613e-25
2.02107e-29
-6.87613e-25
2.02107e-29
-5.094e-25
1.51866e-29
3.94107e-20
-6.87613e-25
2.8185e-20
-5.094e-25
1.04767e-29
-7.47084e-35
2.02107e-29
-1.58922e-34
-7.47084e-35
3.35545e-39
-1.58922e-34
6.56979e-39
-1.58922e-34
6.56979e-39
-1.28502e-34
5.08752e-39
2.02107e-29
-1.58922e-34
1.51866e-29
-1.28502e-34
1.51866e-29
-1.28502e-34
7.89531e-30
-6.77567e-35
-1.28502e-34
5.08752e-39
-6.77567e-35
2.70176e-39
-6.77567e-35
2.70176e-39
-1.95341e-36
6.87897e-41
7.89531e-30
-6.77567e-35
2.26453e-31
-1.95341e-36
2.8185e-20
-5.094e-25
1.44174e-20
-2.62174e-25
-5.094e-25
1.51866e-29
-2.62174e-25
7.89531e-30
-2.62174e-25
7.89531e-30
-8.00718e-27
2.26453e-31
1.44174e-20
-2.62174e-25
4.57357e-22
-8.00718e-27
4.57357e-22
-8.00718e-27
-1.36974e-20
2.49694e-25
-8.00718e-27
2.26453e-31
2.49694e-25
-7.54982e-30
2.49694e-25
-7.54982e-30
5.07574e-25
-1.51465e-29
-1.36974e-20
2.49694e-25
-2.80526e-20
5.07574e-25
2.26453e-31
-1.95341e-36
-7.54982e-30
6.47971e-35
-1.95341e-36
6.87897e-41
6.47971e-35
-2.59977e-39
6.47971e-35
-2.59977e-39
1.28155e-34
-5.07928e-39
-7.54982e-30
6.47971e-35
-1.51465e-29
1.28155e-34
-1.51465e-29
1.28155e-34
-2.05332e-29
1.61343e-34
1.28155e-34
-5.07928e-39
1.61343e-34
-6.66172e-39
1.61343e-34
-6.66172e-39
7.63391e-35
-3.42041e-39
-2.05332e-29
1.61343e-34
-1.07125e-29
7.63391e-35
-2.80526e-20
5.07574e-25
-4.01132e-20
6.99318e-25
5.07574e-25
-1.51465e-29
6.99318e-25
-2.05332e-29
6.99318e-25
-2.05332e-29
3.67106e-25
-1.07125e-29
-4.01132e-20
6.99318e-25
-2.18501e-20
3.67106e-25
-6.34245e-09
-5.15443e-09
0.000183931
2.24407e-07
-5.15443e-09
4.38073e-13
2.24407e-07
-1.17201e-11
2.24407e-07
-1.17201e-11
4.55958e-07
-2.40529e-11
0.000183931
2.24407e-07
0.000367871
4.55958e-07
4.38073e-13
-1.38144e-17
-1.17201e-11
3.95298e-16
-1.38144e-17
4.57357e-22
3.95298e-16
-1.36974e-20
3.95298e-16
-1.36974e-20
8.11572e-16
-2.80526e-20
-1.17201e-11
3.95298e-16
-2.40529e-11
8.11572e-16
-2.40529e-11
8.11572e-16
-3.63659e-11
1.19474e-15
8.11572e-16
-2.80526e-20
1.19474e-15
-4.01132e-20
1.19474e-15
-4.01132e-20
6.7551e-16
-2.18501e-20
-3.63659e-11
1.19474e-15
-2.12946e-11
6.7551e-16
0.000367871
4.55958e-07
0.000551815
6.90351e-07
4.55958e-07
-2.40529e-11
6.90351e-07
-3.63659e-11
6.90351e-07
-3.63659e-11
4.20535e-07
-2.12946e-11
0.000551815
6.90351e-07
0.000337216
4.20535e-07
3.35545e-39
4.07805e-45
6.56979e-39
1.51258e-45
4.07805e-45
8.4207e-49
1.51258e-45
1.63403e-48
1.51258e-45
1.63403e-48
-2.59976e-45
1.27525e-48
6.56979e-39
1.51258e-45
5.08752e-39
-2.59976e-45
8.4207e-49
6.28e-54
1.63403e-48
1.06285e-53
6.28e-54
1.76708e-58
1.06285e-53
3.36733e-58
1.06285e-53
3.36733e-58
7.33628e-54
2.61371e-58
1.63403e-48
1.06285e-53
1.27525e-48
7.33628e-54
1.27525e-48
7.33628e-54
6.87289e-49
3.82401e-54
7.33628e-54
2.61371e-58
3.82401e-54
1.41718e-58
3.82401e-54
1.41718e-58
6.42973e-56
2.69567e-60
6.87289e-49
3.82401e-54
1.52264e-50
6.42973e-56
5.08752e-39
-2.59976e-45
2.70176e-39
-1.77005e-45
-2.59976e-45
1.27525e-48
-1.77005e-45
6.87289e-49
-1.77005e-45
6.87289e-49
-1.00462e-46
1.52264e-50
2.70176e-39
-1.77005e-45
6.87897e-41
-1.00462e-46
1.76708e-58
1.84626e-63
3.36733e-58
3.30958e-63
1.84626e-63
3.04501e-68
3.30958e-63
5.71916e-68
3.30958e-63
5.71916e-68
2.43156e-63
4.40869e-68
3.36733e-58
3.30958e-63
2.61371e-58
2.43156e-63
3.04501e-68
3.33707e-73
5.71916e-68
6.09318e-73
3.33707e-73
4.19407e-78
6.09318e-73
7.81261e-78
6.09318e-73
7.81261e-78
4.57719e-73
5.99946e-78
5.71916e-68
6.09318e-73
4.40869e-68
4.57719e-73
4.40869e-68
4.57719e-73
2.39372e-68
2.46085e-73
4.57719e-73
5.99946e-78
2.46085e-73
3.25814e-78
2.46085e-73
3.25814e-78
3.53928e-75
4.56401e-80
2.39372e-68
2.46085e-73
3.89947e-70
3.53928e-75
2.61371e-58
2.43156e-63
1.41718e-58
1.29472e-63
2.43156e-63
4.40869e-68
1.29472e-63
2.39372e-68
1.29472e-63
2.39372e-68
2.08047e-65
3.89947e-70
1.41718e-58
1.29472e-63
2.69567e-60
2.08047e-65
2.69567e-60
2.08047e-65
-1.37838e-58
-1.26528e-63
2.08047e-65
3.89947e-70
-1.26528e-63
-2.33799e-68
-1.26528e-63
-2.33799e-68
-2.43235e-63
-4.40715e-68
-1.37838e-58
-1.26528e-63
-2.61207e-58
-2.43235e-63
3.89947e-70
3.53928e-75
-2.33799e-68
-2.41079e-73
3.53928e-75
4.56401e-80
-2.41079e-73
-3.1932e-78
-2.41079e-73
-3.1932e-78
-4.5779e-73
-5.99839e-78
-2.33799e-68
-2.41079e-73
-4.40715e-68
-4.5779e-73
-4.40715e-68
-4.5779e-73
-5.77178e-68
-6.14594e-73
-4.5779e-73
-5.99839e-78
-6.14594e-73
-7.87535e-78
-6.14594e-73
-7.87535e-78
-3.37466e-73
-4.23857e-78
-5.77178e-68
-6.14594e-73
-3.08228e-68
-3.37466e-73
-2.61207e-58
-2.43235e-63
-3.4029e-58
-3.3424e-63
-2.43235e-63
-4.40715e-68
-3.3424e-63
-5.77178e-68
-3.3424e-63
-5.77178e-68
-1.86994e-63
-3.08228e-68
-3.4029e-58
-3.3424e-63
-1.79218e-58
-1.86994e-63
6.87897e-41
-1.00462e-46
-2.59977e-39
1.61282e-45
-1.00462e-46
1.52264e-50
1.61282e-45
-6.65126e-49
1.61282e-45
-6.65126e-49
2.54952e-45
-1.27392e-48
-2.59977e-39
1.61282e-45
-5.07928e-39
2.54952e-45
1.52264e-50
6.42973e-56
-6.65126e-49
-3.73346e-54
6.42973e-56
2.69567e-60
-3.73346e-54
-1.37838e-58
-3.73346e-54
-1.37838e-58
-7.34307e-54
-2.61207e-58
-6.65126e-49
-3.73346e-54
-1.27392e-48
-7.34307e-54
-1.27392e-48
-7.34307e-54
-1.6539e-48
-1.07485e-53
-7.34307e-54
-2.61207e-58
-1.07485e-53
-3.4029e-58
-1.07485e-53
-3.4029e-58
-6.37004e-54
-1.79218e-58
-1.6539e-48
-1.07485e-53
-8.56029e-49
-6.37004e-54
-5.07928e-39
2.54952e-45
-6.66172e-39
-1.52113e-45
2.54952e-45
-1.27392e-48
-1.52113e-45
-1.6539e-48
-1.52113e-45
-1.6539e-48
-4.11851e-45
-8.56029e-49
-6.66172e-39
-1.52113e-45
-3.42041e-39
-4.11851e-45
4.19407e-78
4.34673e-83
7.81261e-78
7.99528e-83
4.34673e-83
4.58354e-88
7.99528e-83
8.50323e-88
7.99528e-83
8.50323e-88
6.06978e-83
6.522e-88
7.81261e-78
7.99528e-83
5.99946e-78
6.06978e-83
4.58354e-88
4.3386e-93
8.50323e-88
8.00433e-93
4.3386e-93
4.00081e-98
8.00433e-93
7.40754e-98
8.00433e-93
7.40754e-98
6.11047e-93
5.6824e-98
8.50323e-88
8.00433e-93
6.522e-88
6.11047e-93
6.522e-88
6.11047e-93
3.5427e-88
3.312e-93
6.11047e-93
5.6824e-98
3.312e-93
3.08761e-98
3.312e-93
3.08761e-98
3.68312e-95
3.24402e-100
3.5427e-88
3.312e-93
4.28927e-90
3.68312e-95
5.99946e-78
6.06978e-83
3.25814e-78
3.28045e-83
6.06978e-83
6.522e-88
3.28045e-83
3.5427e-88
3.28045e-83
3.5427e-88
4.16027e-85
4.28927e-90
3.25814e-78
3.28045e-83
4.56401e-80
4.16027e-85
4.00081e-98
3.42932e-103
7.40754e-98
6.33396e-103
3.42932e-103
2.82243e-108
6.33396e-103
5.22045e-108
6.33396e-103
5.22045e-108
4.8504e-103
4.00716e-108
7.40754e-98
6.33396e-103
5.6824e-98
4.8504e-103
2.82243e-108
2.19273e-113
5.22045e-108
4.05124e-113
2.19273e-113
1.62962e-118
4.05124e-113
3.01237e-118
4.05124e-113
3.01237e-118
3.10811e-113
2.31389e-118
5.22045e-108
4.05124e-113
4.00716e-108
3.10811e-113
4.00716e-108
3.10811e-113
2.17799e-108
1.68875e-113
3.10811e-113
2.31389e-118
1.68875e-113
1.25792e-118
1.68875e-113
1.25792e-118
1.43593e-115
1.00246e-120
2.17799e-108
1.68875e-113
1.99117e-110
1.43593e-115
5.6824e-98
4.8504e-103
3.08761e-98
2.63317e-103
4.8504e-103
4.00716e-108
2.63317e-103
2.17799e-108
2.63317e-103
2.17799e-108
2.56168e-105
1.99117e-110
3.08761e-98
2.63317e-103
3.24402e-100
2.56168e-105
3.24402e-100
2.56168e-105
-3.04164e-98
-2.59695e-103
2.56168e-105
1.99117e-110
-2.59695e-103
-2.1498e-108
-2.59695e-103
-2.1498e-108
-4.85046e-103
-4.00705e-108
-3.04164e-98
-2.59695e-103
-5.68215e-98
-4.85046e-103
1.99117e-110
1.43593e-115
-2.1498e-108
-1.66844e-113
1.43593e-115
1.00246e-120
-1.66844e-113
-1.24373e-118
-1.66844e-113
-1.24373e-118
-3.1081e-113
-2.31384e-118
-2.1498e-108
-1.66844e-113
-4.00705e-108
-3.1081e-113
-4.00705e-108
-3.1081e-113
-5.24834e-108
-4.07148e-113
-3.1081e-113
-2.31384e-118
-4.07148e-113
-3.02641e-118
-4.07148e-113
-3.02641e-118
-2.20706e-113
-1.63956e-118
-5.24834e-108
-4.07148e-113
-2.84219e-108
-2.20706e-113
-5.68215e-98
-4.85046e-103
-7.45288e-98
-6.37027e-103
-4.85046e-103
-4.00705e-108
-6.37027e-103
-5.24834e-108
-6.37027e-103
-5.24834e-108
-3.45503e-103
-2.84219e-108
-7.45288e-98
-6.37027e-103
-4.03296e-98
-3.45503e-103
4.56401e-80
4.16027e-85
-3.1932e-78
-3.22163e-83
4.16027e-85
4.28927e-90
-3.22163e-83
-3.48184e-88
-3.22163e-83
-3.48184e-88
-6.07026e-83
-6.52143e-88
-3.1932e-78
-3.22163e-83
-5.99839e-78
-6.07026e-83
4.28927e-90
3.68312e-95
-3.48184e-88
-3.25993e-93
3.68312e-95
3.24402e-100
-3.25993e-93
-3.04164e-98
-3.25993e-93
-3.04164e-98
-6.11069e-93
-5.68215e-98
-3.48184e-88
-3.25993e-93
-6.52143e-88
-6.11069e-93
-6.52143e-88
-6.11069e-93
-8.56285e-88
-8.05698e-93
-6.11069e-93
-5.68215e-98
-8.05698e-93
-7.45288e-98
-8.05698e-93
-7.45288e-98
-4.37589e-93
-4.03296e-98
-8.56285e-88
-8.05698e-93
-4.62583e-88
-4.37589e-93
-5.99839e-78
-6.07026e-83
-7.87535e-78
-8.05563e-83
-6.07026e-83
-6.52143e-88
-8.05563e-83
-8.56285e-88
-8.05563e-83
-8.56285e-88
-4.38954e-83
-4.62583e-88
-7.87535e-78
-8.05563e-83
-4.23857e-78
-4.38954e-83
1.62962e-118
1.15195e-123
3.01237e-118
2.12823e-123
1.15195e-123
7.79072e-129
2.12823e-123
1.4395e-128
2.12823e-123
1.4395e-128
1.63469e-123
1.10642e-128
3.01237e-118
2.12823e-123
2.31389e-118
1.63469e-123
7.79072e-129
5.03335e-134
1.4395e-128
9.29728e-134
5.03335e-134
3.11549e-139
9.29728e-134
5.75452e-139
9.29728e-134
5.75452e-139
7.14687e-134
4.42528e-139
1.4395e-128
9.29728e-134
1.10642e-128
7.14687e-134
1.10642e-128
7.14687e-134
6.01565e-129
3.88555e-134
7.14687e-134
4.42528e-139
3.88555e-134
2.40613e-139
3.88555e-134
2.40613e-139
2.52294e-136
1.46162e-141
6.01565e-129
3.88555e-134
4.18374e-131
2.52294e-136
2.31389e-118
1.63469e-123
1.25792e-118
8.88569e-124
1.63469e-123
1.10642e-128
8.88569e-124
6.01565e-129
8.88569e-124
6.01565e-129
6.60205e-126
4.18374e-131
1.25792e-118
8.88569e-124
1.00246e-120
6.60205e-126
3.11549e-139
1.84751e-144
5.75452e-139
3.41175e-144
1.84751e-144
1.05136e-149
3.41175e-144
1.94134e-149
3.41175e-144
1.94134e-149
2.62407e-144
1.49352e-149
5.75452e-139
3.41175e-144
4.42528e-139
2.62407e-144
1.05136e-149
5.74437e-155
1.94134e-149
1.06052e-154
5.74437e-155
3.01668e-160
1.06052e-154
5.56872e-160
1.06052e-154
5.56872e-160
8.16003e-155
4.28554e-160
1.94134e-149
1.06052e-154
1.49352e-149
8.16003e-155
1.49352e-149
8.16003e-155
8.12042e-150
4.4365e-155
8.16003e-155
4.28554e-160
4.4365e-155
2.32994e-160
4.4365e-155
2.32994e-160
2.20201e-157
1.08176e-162
8.12042e-150
4.4365e-155
4.31132e-152
2.20201e-157
4.42528e-139
2.62407e-144
2.40613e-139
1.42671e-144
2.62407e-144
1.49352e-149
1.42671e-144
8.12042e-150
1.42671e-144
8.12042e-150
8.09796e-147
4.31132e-152
2.40613e-139
1.42671e-144
1.46162e-141
8.09796e-147
1.46162e-141
8.09796e-147
-2.38543e-139
-1.41524e-144
8.09796e-147
4.31132e-152
-1.41524e-144
-8.05934e-150
-1.41524e-144
-8.05934e-150
-2.62401e-144
-1.49348e-149
-2.38543e-139
-1.41524e-144
-4.42517e-139
-2.62401e-144
4.31132e-152
2.20201e-157
-8.05934e-150
-4.40529e-155
2.20201e-157
1.08176e-162
-4.40529e-155
-2.3146e-160
-4.40529e-155
-2.3146e-160
-8.15979e-155
-4.2854e-160
-8.05934e-150
-4.40529e-155
-1.49348e-149
-8.15979e-155
-1.49348e-149
-8.15979e-155
-1.94734e-149
-1.06358e-154
-8.15979e-155
-4.2854e-160
-1.06358e-154
-5.58373e-160
-1.06358e-154
-5.58373e-160
-5.76605e-155
-3.0273e-160
-1.94734e-149
-1.06358e-154
-1.05561e-149
-5.76605e-155
-4.42517e-139
-2.62401e-144
-5.77492e-139
-3.42304e-144
-2.62401e-144
-1.49348e-149
-3.42304e-144
-1.94734e-149
-3.42304e-144
-1.94734e-149
-1.85551e-144
-1.05561e-149
-5.77492e-139
-3.42304e-144
-3.12994e-139
-1.85551e-144
1.00246e-120
6.60205e-126
-1.24373e-118
-8.79228e-124
6.60205e-126
4.18374e-131
-8.79228e-124
-5.95642e-129
-8.79228e-124
-5.95642e-129
-1.63467e-123
-1.1064e-128
-1.24373e-118
-8.79228e-124
-2.31384e-118
-1.63467e-123
4.18374e-131
2.52294e-136
-5.95642e-129
-3.84984e-134
2.52294e-136
1.46162e-141
-3.84984e-134
-2.38543e-139
-3.84984e-134
-2.38543e-139
-7.14674e-134
-4.42517e-139
-5.95642e-129
-3.84984e-134
-1.1064e-128
-7.14674e-134
-1.1064e-128
-7.14674e-134
-1.44535e-128
-9.33259e-134
-7.14674e-134
-4.42517e-139
-9.33259e-134
-5.77492e-139
-9.33259e-134
-5.77492e-139
-5.05835e-134
-3.12994e-139
-1.44535e-128
-9.33259e-134
-7.83217e-129
-5.05835e-134
-2.31384e-118
-1.63467e-123
-3.02641e-118
-2.1375e-123
-1.63467e-123
-1.1064e-128
-2.1375e-123
-1.44535e-128
-2.1375e-123
-1.44535e-128
-1.15852e-123
-7.83217e-129
-3.02641e-118
-2.1375e-123
-1.63956e-118
-1.15852e-123
3.01668e-160
1.52363e-165
5.56872e-160
2.8122e-165
1.52363e-165
7.40704e-171
2.8122e-165
1.36698e-170
2.8122e-165
1.36698e-170
2.16445e-165
1.05225e-170
5.56872e-160
2.8122e-165
4.28554e-160
2.16445e-165
7.40704e-171
3.46803e-176
1.36698e-170
6.39952e-176
3.46803e-176
1.56485e-181
6.39952e-176
2.88728e-181
6.39952e-176
2.88728e-181
4.92662e-176
2.22297e-181
1.36698e-170
6.39952e-176
1.05225e-170
4.92662e-176
1.05225e-170
4.92662e-176
5.72033e-171
2.67811e-176
4.92662e-176
2.22297e-181
2.67811e-176
1.20835e-181
2.67811e-176
1.20835e-181
1.01773e-178
4.29678e-184
5.72033e-171
2.67811e-176
2.3237e-173
1.01773e-178
4.28554e-160
2.16445e-165
2.32994e-160
1.1767e-165
2.16445e-165
1.05225e-170
1.1767e-165
5.72033e-171
1.1767e-165
5.72033e-171
5.10931e-168
2.3237e-173
2.32994e-160
1.1767e-165
1.08176e-162
5.10931e-168
1.56485e-181
6.80832e-187
2.88728e-181
1.25606e-186
6.80832e-187
2.85767e-192
1.25606e-186
5.27156e-192
1.25606e-186
5.27156e-192
9.67142e-187
4.0593e-192
2.88728e-181
1.25606e-186
2.22297e-181
9.67142e-187
2.85767e-192
1.15766e-197
5.27156e-192
2.13534e-197
1.15766e-197
4.52822e-203
2.13534e-197
8.3517e-203
2.13534e-197
8.3517e-203
1.6444e-197
6.43195e-203
5.27156e-192
2.13534e-197
4.0593e-192
1.6444e-197
4.0593e-192
1.6444e-197
2.20631e-192
8.93719e-198
1.6444e-197
6.43195e-203
8.93719e-198
3.49554e-203
8.93719e-198
3.49554e-203
2.60533e-200
9.5399e-206
2.20631e-192
8.93719e-198
6.87125e-195
2.60533e-200
2.22297e-181
9.67142e-187
1.20835e-181
5.25687e-187
9.67142e-187
4.0593e-192
5.25687e-187
2.20631e-192
5.25687e-187
2.20631e-192
1.74923e-189
6.87125e-195
1.20835e-181
5.25687e-187
4.29678e-184
1.74923e-189
4.29678e-184
1.74923e-189
-1.20225e-181
-5.23202e-187
1.74923e-189
6.87125e-195
-5.23202e-187
-2.19655e-192
-5.23202e-187
-2.19655e-192
-9.67102e-187
-4.05913e-192
-1.20225e-181
-5.23202e-187
-2.22288e-181
-9.67102e-187
6.87125e-195
2.60533e-200
-2.19655e-192
-8.90014e-198
2.60533e-200
9.5399e-206
-8.90014e-198
-3.48197e-203
-8.90014e-198
-3.48197e-203
-1.64433e-197
-6.43166e-203
-2.19655e-192
-8.90014e-198
-4.05913e-192
-1.64433e-197
-4.05913e-192
-1.64433e-197
-5.28096e-192
-2.13889e-197
-1.64433e-197
-6.43166e-203
-2.13889e-197
-8.36467e-203
-2.13889e-197
-8.36467e-203
-1.16017e-197
-4.53741e-203
-5.28096e-192
-2.13889e-197
-2.86432e-192
-1.16017e-197
-2.22288e-181
-9.67102e-187
-2.89319e-181
-1.25846e-186
-9.67102e-187
-4.05913e-192
-1.25846e-186
-5.28096e-192
-1.25846e-186
-5.28096e-192
-6.82531e-187
-2.86432e-192
-2.89319e-181
-1.25846e-186
-1.56903e-181
-6.82531e-187
1.08176e-162
5.10931e-168
-2.3146e-160
-1.16946e-165
5.10931e-168
2.3237e-173
-1.16946e-165
-5.68737e-171
-1.16946e-165
-5.68737e-171
-2.16438e-165
-1.05221e-170
-2.3146e-160
-1.16946e-165
-4.2854e-160
-2.16438e-165
2.3237e-173
1.01773e-178
-5.68737e-171
-2.66367e-176
1.01773e-178
4.29678e-184
-2.66367e-176
-1.20225e-181
-2.66367e-176
-1.20225e-181
-4.92644e-176
-2.22288e-181
-5.68737e-171
-2.66367e-176
-1.05221e-170
-4.92644e-176
-1.05221e-170
-4.92644e-176
-1.37019e-170
-6.41355e-176
-4.92644e-176
-2.22288e-181
-6.41355e-176
-2.89319e-181
-6.41355e-176
-2.89319e-181
-3.47797e-176
-1.56903e-181
-1.37019e-170
-6.41355e-176
-7.42977e-171
-3.47797e-176
-4.2854e-160
-2.16438e-165
-5.58373e-160
-2.81927e-165
-2.16438e-165
-1.05221e-170
-2.81927e-165
-1.37019e-170
-2.81927e-165
-1.37019e-170
-1.52864e-165
-7.42977e-171
-5.58373e-160
-2.81927e-165
-3.0273e-160
-1.52864e-165
4.52822e-203
1.71085e-208
8.3517e-203
3.15517e-208
1.71085e-208
6.24563e-214
3.15517e-208
1.15173e-213
3.15517e-208
1.15173e-213
2.43004e-208
8.87082e-214
8.3517e-203
3.15517e-208
6.43195e-203
2.43004e-208
6.24563e-214
2.20365e-219
1.15173e-213
4.06336e-219
2.20365e-219
7.51651e-225
4.06336e-219
1.38589e-224
4.06336e-219
1.38589e-224
3.1298e-219
1.06752e-224
1.15173e-213
4.06336e-219
8.87082e-214
3.1298e-219
8.87082e-214
3.1298e-219
4.82054e-214
1.7007e-219
3.1298e-219
1.06752e-224
1.7007e-219
5.80058e-225
1.7007e-219
5.80058e-225
3.81198e-222
1.21799e-227
4.82054e-214
1.7007e-219
1.15358e-216
3.81198e-222
6.43195e-203
2.43004e-208
3.49554e-203
1.32058e-208
2.43004e-208
8.87082e-214
1.32058e-208
4.82054e-214
1.32058e-208
4.82054e-214
3.37457e-211
1.15358e-216
3.49554e-203
1.32058e-208
9.5399e-206
3.37457e-211
7.51651e-225
2.47905e-230
1.38589e-224
4.57055e-230
2.47905e-230
7.90711e-236
4.57055e-230
1.45772e-235
4.57055e-230
1.45772e-235
3.52073e-230
1.12293e-235
1.38589e-224
4.57055e-230
1.06752e-224
3.52073e-230
7.90711e-236
2.43929e-241
1.45772e-235
4.49669e-241
2.43929e-241
7.27867e-247
4.49669e-241
1.34171e-246
4.49669e-241
1.34171e-246
3.46407e-241
1.03363e-246
1.45772e-235
4.49669e-241
1.12293e-235
3.46407e-241
1.12293e-235
3.46407e-241
6.10116e-236
1.88204e-241
3.46407e-241
1.03363e-246
1.88204e-241
5.61554e-247
1.88204e-241
5.61554e-247
3.25273e-244
9.09939e-250
6.10116e-236
1.88204e-241
1.12493e-238
3.25273e-244
1.06752e-224
3.52073e-230
5.80058e-225
1.91297e-230
3.52073e-230
1.12293e-235
1.91297e-230
6.10116e-236
1.91297e-230
6.10116e-236
3.76364e-233
1.12493e-238
5.80058e-225
1.91297e-230
1.21799e-227
3.76364e-233
1.21799e-227
3.76364e-233
-5.7832e-225
-1.9076e-230
3.76364e-233
1.12493e-238
-1.9076e-230
-6.08508e-236
-1.9076e-230
-6.08508e-236
-3.52056e-230
-1.12287e-235
-5.7832e-225
-1.9076e-230
-1.06747e-224
-3.52056e-230
1.12493e-238
3.25273e-244
-6.08508e-236
-1.87739e-241
3.25273e-244
9.09939e-250
-1.87739e-241
-5.60251e-247
-1.87739e-241
-5.60251e-247
-3.46389e-241
-1.03357e-246
-6.08508e-236
-1.87739e-241
-1.12287e-235
-3.46389e-241
-1.12287e-235
-3.46389e-241
-1.45921e-235
-4.50099e-241
-3.46389e-241
-1.03357e-246
-4.50099e-241
-1.3429e-246
-4.50099e-241
-1.3429e-246
-2.44233e-241
-7.28713e-247
-1.45921e-235
-4.50099e-241
-7.91768e-236
-2.44233e-241
-1.06747e-224