<VTKFile type="UnstructuredGrid" version="0.1" byte_order="LittleEndian">
<UnstructuredGrid>
<Piece NumberOfPoints="2048" NumberOfCells="512">
<Points>
<DataArray type="Float64" NumberOfComponents="3" format="ascii">
0 0 0
0.125 0 0
0 0.125 0
0.125 0.125 0
0.125 0 0
0.25 0 0
0.125 0.125 0
0.25 0.125 0
0.125 0.125 0
0.25 0.125 0
0.125 0.25 0
0.25 0.25 0
0 0.125 0
0.125 0.125 0
0 0.25 0
0.125 0.25 0
0.25 0 0
0.375 0 0
0.25 0.125 0
0.375 0.125 0
0.375 0 0
0.5 0 0
0.375 0.125 0
0.5 0.125 0
0.375 0.125 0
0.5 0.125 0
0.375 0.25 0
0.5 0.25 0
0.25 0.125 0
0.375 0.125 0
0.25 0.25 0
0.375 0.25 0
0.25 0.25 0
0.375 0.25 0
0.25 0.375 0
0.375 0.375 0
0.375 0.25 0
0.5 0.25 0
0.375 0.375 0
0.5 0.375 0
0.375 0.375 0
0.5 0.375 0
0.375 0.5 0
0.5 0.5 0
0.25 0.375 0
0.375 0.375 0
0.25 0.5 0
0.375 0.5 0
0 0.25 0
0.125 0.25 0
0 0.375 0
0.125 0.375 0
0.125 0.25 0
0.25 0.25 0
0.125 0.375 0
0.25 0.375 0
0.125 0.375 0
0.25 0.375 0
0.125 0.5 0
0.25 0.5 0
0 0.375 0
0.125 0.375 0
0 0.5 0
0.125 0.5 0
0.5 0 0
0.625 0 0
0.5 0.125 0
0.625 0.125 0
0.625 0 0
0.75 0 0
0.625 0.125 0
0.75 0.125 0
0.625 0.125 0
0.75 0.125 0
0.625 0.25 0
0.75 0.25 0
0.5 0.125 0
0.625 0.125 0
0.5 0.25 0
0.625 0.25 0
0.75 0 0
0.875 0 0
0.75 0.125 0
0.875 0.125 0
0.875 0 0
1 0 0
0.875 0.125 0
1 0.125 0
0.875 0.125 0
1 0.125 0
0.875 0.25 0
1 0.25 0
0.75 0.125 0
0.875 0.125 0
0.75 0.25 0
0.875 0.25 0
0.75 0.25 0
0.875 0.25 0
0.75 0.375 0
0.875 0.375 0
0.875 0.25 0
1 0.25 0
0.875 0.375 0
1 0.375 0
0.875 0.375 0
1 0.375 0
0.875 0.5 0
1 0.5 0
0.75 0.375 0
0.875 0.375 0
0.75 0.5 0
0.875 0.5 0
0.5 0.25 0
0.625 0.25 0
0.5 0.375 0
0.625 0.375 0
0.625 0.25 0
0.75 0.25 0
0.625 0.375 0
0.75 0.375 0
0.625 0.375 0
0.75 0.375 0
0.625 0.5 0
0.75 0.5 0
0.5 0.375 0
0.625 0.375 0
0.5 0.5 0
0.625 0.5 0
0.5 0.5 0
0.625 0.5 0
0.5 0.625 0
0.625 0.625 0
0.625 0.5 0
0.75 0.5 0
0.625 0.625 0
0.75 0.625 0
0.625 0.625 0
0.75 0.625 0
0.625 0.75 0
0.75 0.75 0
0.5 0.625 0
0.625 0.625 0
0.5 0.75 0
0.625 0.75 0
0.75 0.5 0
0.875 0.5 0
0.75 0.625 0
0.875 0.625 0
0.875 0.5 0
1 0.5 0
0.875 0.625 0
1 0.625 0
0.875 0.625 0
1 0.625 0
0.875 0.75 0
1 0.75 0
0.75 0.625 0
0.875 0.625 0
0.75 0.75 0
0.875 0.75 0
0.75 0.75 0
0.875 0.75 0
0.75 0.875 0
0.875 0.875 0
0.875 0.75 0
1 0.75 0
0.875 0.875 0
1 0.875 0
0.875 0.875 0
1 0.875 0
0.875 1 0
1 1 0
0.75 0.875 0
0.875 0.875 0
0.75 1 0
0.875 1 0
0.5 0.75 0
0.625 0.75 0
0.5 0.875 0
0.625 0.875 0
0.625 0.75 0
0.75 0.75 0
0.625 0.875 0
0.75 0.875 0
0.625 0.875 0
0.75 0.875 0
0.625 1 0
0.75 1 0
0.5 0.875 0
0.625 0.875 0
0.5 1 0
0.625 1 0
0 0.5 0
0.125 0.5 0
0 0.625 0
0.125 0.625 0
0.125 0.5 0
0.25 0.5 0
0.125 0.625 0
0.25 0.625 0
0.125 0.625 0
0.25 0.625 0
0.125 0.75 0
0.25 0.75 0
0 0.625 0
0.125 0.625 0
0 0.75 0
0.125 0.75 0
0.25 0.5 0
0.375 0.5 0
0.25 0.625 0
0.375 0.625 0
0.375 0.5 0
0.5 0.5 0
0.375 0.625 0
0.5 0.625 0
0.375 0.625 0
0.5 0.625 0
0.375 0.75 0
0.5 0.75 0
0.25 0.625 0
0.375 0.625 0
0.25 0.75 0
0.375 0.75 0
0.25 0.75 0
0.375 0.75 0
0.25 0.875 0
0.375 0.875 0
0.375 0.75 0
0.5 0.75 0
0.375 0.875 0
0.5 0.875 0
0.375 0.875 0
0.5 0.875 0
0.375 1 0
0.5 1 0
0.25 0.875 0
0.375 0.875 0
0.25 1 0
0.375 1 0
0 0.75 0
0.125 0.75 0
0 0.875 0
0.125 0.875 0
0.125 0.75 0
0.25 0.75 0
0.125 0.875 0
0.25 0.875 0
0.125 0.875 0
0.25 0.875 0
0.125 1 0
0.25 1 0
0 0.875 0
0.125 0.875 0
0 1 0
0.125 1 0
1 0 0
1.125 0 0
1 0.125 0
1.125 0.125 0
1.125 0 0
1.25 0 0
1.125 0.125 0
1.25 0.125 0
1.125 0.125 0
1.25 0.125 0
1.125 0.25 0
1.25 0.25 0
1 0.125 0
1.125 0.125 0
1 0.25 0
1.125 0.25 0
1.25 0 0
1.375 0 0
1.25 0.125 0
1.375 0.125 0
1.375 0 0
1.5 0 0
1.375 0.125 0
1.5 0.125 0
1.375 0.125 0
1.5 0.125 0
1.375 0.25 0
1.5 0.25 0
1.25 0.125 0
1.375 0.125 0
1.25 0.25 0
1.375 0.25 0
1.25 0.25 0
1.375 0.25 0
1.25 0.375 0
1.375 0.375 0
1.375 0.25 0
1.5 0.25 0
1.375 0.375 0
1.5 0.375 0
1.375 0.375 0
1.5 0.375 0
1.375 0.5 0
1.5 0.5 0
1.25 0.375 0
1.375 0.375 0
1.25 0.5 0
1.375 0.5 0
1 0.25 0
1.125 0.25 0
1 0.375 0
1.125 0.375 0
1.125 0.25 0
1.25 0.25 0
1.125 0.375 0
1.25 0.375 0
1.125 0.375 0
1.25 0.375 0
1.125 0.5 0
1.25 0.5 0
1 0.375 0
1.125 0.375 0
1 0.5 0
1.125 0.5 0
1.5 0 0
1.625 0 0
1.5 0.125 0
1.625 0.125 0
1.625 0 0
1.75 0 0
1.625 0.125 0
1.75 0.125 0
1.625 0.125 0
1.75 0.125 0
1.625 0.25 0
1.75 0.25 0
1.5 0.125 0
1.625 0.125 0
1.5 0.25 0
1.625 0.25 0
1.75 0 0
1.875 0 0
1.75 0.125 0
1.875 0.125 0
1.875 0 0
2 0 0
1.875 0.125 0
2 0.125 0
1.875 0.125 0
2 0.125 0
1.875 0.25 0
2 0.25 0
1.75 0.125 0
1.875 0.125 0
1.75 0.25 0
1.875 0.25 0
1.75 0.25 0
1.875 0.25 0
1.75 0.375 0
1.875 0.375 0
1.875 0.25 0
2 0.25 0
1.875 0.375 0
2 0.375 0
1.875 0.375 0
2 0.375 0
1.875 0.5 0
2 0.5 0
1.75 0.375 0
1.875 0.375 0
1.75 0.5 0
1.875 0.5 0
1.5 0.25 0
1.625 0.25 0
1.5 0.375 0
1.625 0.375 0
1.625 0.25 0
1.75 0.25 0
1.625 0.375 0
1.75 0.375 0
1.625 0.375 0
1.75 0.375 0
1.625 0.5 0
1.75 0.5 0
1.5 0.375 0
1.625 0.375 0
1.5 0.5 0
1.625 0.5 0
1.5 0.5 0
1.625 0.5 0
1.5 0.625 0
1.625 0.625 0
1.625 0.5 0
1.75 0.5 0
1.625 0.625 0
1.75 0.625 0
1.625 0.625 0
1.75 0.625 0
1.625 0.75 0
1.75 0.75 0
1.5 0.625 0
1.625 0.625 0
1.5 0.75 0
1.625 0.75 0
1.75 0.5 0
1.875 0.5 0
1.75 0.625 0
1.875 0.625 0
1.875 0.5 0
2 0.5 0
1.875 0.625 0
2 0.625 0
1.875 0.625 0
2 0.625 0
1.875 0.75 0
2 0.75 0
1.75 0.625 0
1.875 0.625 0
1.75 0.75 0
1.875 0.75 0
1.75 0.75 0
1.875 0.75 0
1.75 0.875 0
1.875 0.875 0
1.875 0.75 0
2 0.75 0
1.875 0.875 0
2 0.875 0
1.875 0.875 0
2 0.875 0
1.875 1 0
2 1 0
1.75 0.875 0
1.875 0.875 0
1.75 1 0
1.875 1 0
1.5 0.75 0
1.625 0.75 0
1.5 0.875 0
1.625 0.875 0
1.625 0.75 0
1.75 0.75 0
1.625 0.875 0
1.75 0.875 0
1.625 0.875 0
1.75 0.875 0
1.625 1 0
1.75 1 0
1.5 0.875 0
1.625 0.875 0
1.5 1 0
1.625 1 0
1 0.5 0
1.125 0.5 0
1 0.625 0
1.125 0.625 0
1.125 0.5 0
1.25 0.5 0
1.125 0.625 0
1.25 0.625 0
1.125 0.625 0
1.25 0.625 0
1.125 0.75 0
1.25 0.75 0
1 0.625 0
1.125 0.625 0
1 0.75 0
1.125 0.75 0
1.25 0.5 0
1.375 0.5 0
1.25 0.625 0
1.375 0.625 0
1.375 0.5 0
1.5 0.5 0
1.375 0.625 0
1.5 0.625 0
1.375 0.625 0
1.5 0.625 0
1.375 0.75 0
1.5 0.75 0
1.25 0.625 0
1.375 0.625 0
1.25 0.75 0
1.375 0.75 0
1.25 0.75 0
1.375 0.75 0
1.25 0.875 0
1.375 0.875 0
1.375 0.75 0
1.5 0.75 0
1.375 0.875 0
1.5 0.875 0
1.375 0.875 0
1.5 0.875 0
1.375 1 0
1.5 1 0
1.25 0.875 0
1.375 0.875 0
1.25 1 0
1.375 1 0
1 0.75 0
1.125 0.75 0
1 0.875 0
1.125 0.875 0
1.125 0.75 0
1.25 0.75 0
1.125 0.875 0
1.25 0.875 0
1.125 0.875 0
1.25 0.875 0
1.125 1 0
1.25 1 0
1 0.875 0
1.125 0.875 0
1 1 0
1.125 1 0
2 0 0
2.125 0 0
2 0.125 0
2.125 0.125 0
2.125 0 0
2.25 0 0
2.125 0.125 0
2.25 0.125 0
2.125 0.125 0
2.25 0.125 0
2.125 0.25 0
2.25 0.25 0
2 0.125 0
2.125 0.125 0
2 0.25 0
2.125 0.25 0
2.25 0 0
2.375 0 0
2.25 0.125 0
2.375 0.125 0
2.375 0 0
2.5 0 0
2.375 0.125 0
2.5 0.125 0
2.375 0.125 0
2.5 0.125 0
2.375 0.25 0
2.5 0.25 0
2.25 0.125 0
2.375 0.125 0
2.25 0.25 0
2.375 0.25 0
2.25 0.25 0
2.375 0.25 0
2.25 0.375 0
2.375 0.375 0
2.375 0.25 0
2.5 0.25 0
2.375 0.375 0
2.5 0.375 0
2.375 0.375 0
2.5 0.375 0
2.375 0.5 0
2.5 0.5 0
2.25 0.375 0
2.375 0.375 0
2.25 0.5 0
2.375 0.5 0
2 0.25 0
2.125 0.25 0
2 0.375 0
2.125 0.375 0
2.125 0.25 0
2.25 0.25 0
2.125 0.375 0
2.25 0.375 0
2.125 0.375 0
2.25 0.375 0
2.125 0.5 0
2.25 0.5 0
2 0.375 0
2.125 0.375 0
2 0.5 0
2.125 0.5 0
2.5 0 0
2.625 0 0
2.5 0.125 0
2.625 0.125 0
2.625 0 0
2.75 0 0
2.625 0.125 0
2.75 0.125 0
2.625 0.125 0
2.75 0.125 0
2.625 0.25 0
2.75 0.25 0
2.5 0.125 0
2.625 0.125 0
2.5 0.25 0
2.625 0.25 0
2.75 0 0
2.875 0 0
2.75 0.125 0
2.875 0.125 0
2.875 0 0
3 0 0
2.875 0.125 0
3 0.125 0
2.875 0.125 0
3 0.125 0
2.875 0.25 0
3 0.25 0
2.75 0.125 0
2.875 0.125 0
2.75 0.25 0
2.875 0.25 0
2.75 0.25 0
2.875 0.25 0
2.75 0.375 0
2.875 0.375 0
2.875 0.25 0
3 0.25 0
2.875 0.375 0
3 0.375 0
2.875 0.375 0
3 0.375 0
2.875 0.5 0
3 0.5 0
2.75 0.375 0
2.875 0.375 0
2.75 0.5 0
2.875 0.5 0
2.5 0.25 0
2.625 0.25 0
2.5 0.375 0
2.625 0.375 0
2.625 0.25 0
2.75 0.25 0
2.625 0.375 0
2.75 0.375 0
2.625 0.375 0
2.75 0.375 0
2.625 0.5 0
2.75 0.5 0
2.5 0.375 0
2.625 0.375 0
2.5 0.5 0
2.625 0.5 0
2.5 0.5 0
2.625 0.5 0
2.5 0.625 0
2.625 0.625 0
2.625 0.5 0
2.75 0.5 0
2.625 0.625 0
2.75 0.625 0
2.625 0.625 0
2.75 0.625 0
2.625 0.75 0
2.75 0.75 0
2.5 0.625 0
2.625 0.625 0
2.5 0.75 0
2.625 0.75 0
2.75 0.5 0
2.875 0.5 0
2.75 0.625 0
2.875 0.625 0
2.875 0.5 0
3 0.5 0
2.875 0.625 0
3 0.625 0
2.875 0.625 0
3 0.625 0
2.875 0.75 0
3 0.75 0
2.75 0.625 0
2.875 0.625 0
2.75 0.75 0
2.875 0.75 0
2.75 0.75 0
2.875 0.75 0
2.75 0.875 0
2.875 0.875 0
2.875 0.75 0
3 0.75 0
2.875 0.875 0
3 0.875 0
2.875 0.875 0
3 0.875 0
2.875 1 0
3 1 0
2.75 0.875 0
2.875 0.875 0
2.75 1 0
2.875 1 0
2.5 0.75 0
2.625 0.75 0
2.5 0.875 0
2.625 0.875 0
2.625 0.75 0
2.75 0.75 0
2.625 0.875 0
2.75 0.875 0
2.625 0.875 0
2.75 0.875 0
2.625 1 0
2.75 1 0
2.5 0.875 0
2.625 0.875 0
2.5 1 0
2.625 1 0
2 0.5 0
2.125 0.5 0
2 0.625 0
2.125 0.625 0
2.125 0.5 0
2.25 0.5 0
2.125 0.625 0
2.25 0.625 0
2.125 0.625 0
2.25 0.625 0
2.125 0.75 0
2.25 0.75 0
2 0.625 0
2.125 0.625 0
2 0.75 0
2.125 0.75 0
2.25 0.5 0
2.375 0.5 0
2.25 0.625 0
2.375 0.625 0
2.375 0.5 0
2.5 0.5 0
2.375 0.625 0
2.5 0.625 0
2.375 0.625 0
2.5 0.625 0
2.375 0.75 0
2.5 0.75 0
2.25 0.625 0
2.375 0.625 0
2.25 0.75 0
2.375 0.75 0
2.25 0.75 0
2.375 0.75 0
2.25 0.875 0
2.375 0.875 0
2.375 0.75 0
2.5 0.75 0
2.375 0.875 0
2.5 0.875 0
2.375 0.875 0
2.5 0.875 0
2.375 1 0
2.5 1 0
2.25 0.875 0
2.375 0.875 0
2.25 1 0
2.375 1 0
2 0.75 0
2.125 0.75 0
2 0.875 0
2.125 0.875 0
2.125 0.75 0
2.25 0.75 0
2.125 0.875 0
2.25 0.875 0
2.125 0.875 0
2.25 0.875 0
2.125 1 0
2.25 1 0
2 0.875 0
2.125 0.875 0
2 1 0
2.125 1 0
3 0 0
3.125 0 0
3 0.125 0
3.125 0.125 0
3.125 0 0
3.25 0 0
3.125 0.125 0
3.25 0.125 0
3.125 0.125 0
3.25 0.125 0
3.125 0.25 0
3.25 0.25 0
3 0.125 0
3.125 0.125 0
3 0.25 0
3.125 0.25 0
3.25 0 0
3.375 0 0
3.25 0.125 0
3.375 0.125 0
3.375 0 0
3.5 0 0
3.375 0.125 0
3.5 0.125 0
3.375 0.125 0
3.5 0.125 0
3.375 0.25 0
3.5 0.25 0
3.25 0.125 0
3.375 0.125 0
3.25 0.25 0
3.375 0.25 0
3.25 0.25 0
3.375 0.25 0
3.25 0.375 0
3.375 0.375 0
3.375 0.25 0
3.5 0.25 0
3.375 0.375 0
3.5 0.375 0
3.375 0.375 0
3.5 0.375 0
3.375 0.5 0
3.5 0.5 0
3.25 0.375 0
3.375 0.375 0
3.25 0.5 0
[...]
<CellData Scalars="attribute">
<DataArray type="Int32" Name="attribute" format="ascii">
1
1
1
1
1
1
1
1
1
1
1
1
1
1
1
1
1
1
1
1
1
1
1
1
1
1
1
1
1
1
1
1
1
1
1
1
1
1
1
1
1
1
1
1
1
1
1
1
1
1
1
1
1
1
1
1
1
1
1
1
1
1
1
1
1
1
1
1
1
1
1
1
1
1
1
1
1
1
1
1
1
1
1
1
1
1
1
1
1
1
1
1
1
1
1
1
1
1
1
1
1
1
1
1
1
1
1
1
1
1
1
1
1
1
1
1
1
1
1
1
1
1
1
1
1
1
1
1
1
1
1
1
1
1
1
1
1
1
1
1
1
1
1
1
1
1
1
1
1
1
1
1
1
1
1
1
1
1
1
1
1
1
1
1
1
1
1
1
1
1
1
1
1
1
1
1
1
1
1
1
1
1
1
1
1
1
1
1
1
1
1
1
1
1
1
1
1
1
1
1
1
1
1
1
1
1
1
1
1
1
1
1
1
1
1
1
1
1
1
1
1
1
1
1
1
1
1
1
1
1
1
1
1
1
1
1
1
1
1
1
1
1
1
1
1
1
1
1
1
1
1
1
1
1
1
1
2
2
2
2
2
2
2
2
2
2
2
2
2
2
2
2
2
2
2
2
2
2
2
2
2
2
2
2
2
2
2
2
2
2
2
2
2
2
2
2
2
2
2
2
2
2
2
2
2
2
2
2
2
2
2
2
2
2
2
2
2
2
2
2
2
2
2
2
2
2
2
2
2
2
2
2
2
2
2
2
2
2
2
2
2
2
2
2
2
2
2
2
2
2
2
2
2
2
2
2
2
2
2
2
2
2
2
2
2
2
2
2
2
2
2
2
2
2
2
2
2
2
2
2
2
2
2
2
2
2
2
2
2
2
2
2
2
2
2
2
2
2
2
2
2
2
2
2
2
2
2
2
2
2
2
2
2
2
2
2
2
2
2
2
2
2
2
2
2
2
2
2
2
2
2
2
2
2
2
2
2
2
2
2
2
2
2
2
2
2
2
2
2
2
2
2
2
2
2
2
2
2
2
2
2
2
2
2
2
2
2
2
2
2
2
2
2
2
2
2
2
2
2
2
2
2
2
2
2
2
2
2
2
2
2
2
2
2
2
2
2
2
2
2
2
2
2
2
2
2
2
2
2
2
2
2
</DataArray>
</CellData>
<PointData >
<DataArray type="Float64" Name="Pressure" NumberOfComponents="1" format="ascii" >
-0.000978312
-2.13816e-06
-0.00160094
-3.53952e-06
-2.13816e-06
1.82163e-10
-3.53952e-06
3.15474e-10
-3.53952e-06
3.15474e-10
-2.37626e-06
2.14235e-10
-0.00160094
-3.53952e-06
-0.00106732
-2.37626e-06
1.82163e-10
-9.74589e-15
3.15474e-10
-1.74025e-14
-9.74589e-15
5.27221e-19
-1.74025e-14
9.76085e-19
-1.74025e-14
9.76085e-19
-1.2118e-14
6.98114e-19
3.15474e-10
-1.74025e-14
2.14235e-10
-1.2118e-14
2.14235e-10
-1.2118e-14
1.0979e-10
-6.19223e-15
-1.2118e-14
6.98114e-19
-6.19223e-15
3.57109e-19
-6.19223e-15
3.57109e-19
-2.05103e-16
1.1333e-20
1.0979e-10
-6.19223e-15
3.87429e-12
-2.05103e-16
-0.00106732
-2.37626e-06
-0.000533681
-1.20665e-06
-2.37626e-06
2.14235e-10
-1.20665e-06
1.0979e-10
-1.20665e-06
1.0979e-10
-2.67288e-08
3.87429e-12
-0.000533681
-1.20665e-06
-3.2884e-08
-2.67288e-08
5.27221e-19
-1.47601e-23
9.76085e-19
-2.8324e-23
-1.47601e-23
7.18319e-28
-2.8324e-23
1.3859e-27
-2.8324e-23
1.3859e-27
-2.09863e-23
1.04148e-27
9.76085e-19
-2.8324e-23
6.98114e-19
-2.09863e-23
7.18319e-28
-8.49314e-33
1.3859e-27
-1.80792e-32
-8.49314e-33
6.37666e-37
-1.80792e-32
1.24858e-36
-1.80792e-32
1.24858e-36
-1.4625e-32
9.66913e-37
1.3859e-27
-1.80792e-32
1.04148e-27
-1.4625e-32
1.04148e-27
-1.4625e-32
5.41466e-28
-7.7121e-33
-1.4625e-32
9.66913e-37
-7.7121e-33
5.13499e-37
-7.7121e-33
5.13499e-37
-2.22479e-34
1.30751e-38
5.41466e-28
-7.7121e-33
1.55337e-29
-2.22479e-34
6.98114e-19
-2.09863e-23
3.57109e-19
-1.08014e-23
-2.09863e-23
1.04148e-27
-1.08014e-23
5.41466e-28
-1.08014e-23
5.41466e-28
-3.30045e-25
1.55337e-29
3.57109e-19
-1.08014e-23
1.1333e-20
-3.30045e-25
1.1333e-20
-3.30045e-25
-3.39268e-19
1.02869e-23
-3.30045e-25
1.55337e-29
1.02869e-23
-5.17767e-28
1.02869e-23
-5.17767e-28
2.09111e-23
-1.03873e-27
-3.39268e-19
1.02869e-23
-6.94831e-19
2.09111e-23
1.55337e-29
-2.22479e-34
-5.17767e-28
7.37503e-33
-2.22479e-34
1.30751e-38
7.37503e-33
-4.94114e-37
7.37503e-33
-4.94114e-37
1.45855e-32
-9.65348e-37
-5.17767e-28
7.37503e-33
-1.03873e-27
1.45855e-32
-1.03873e-27
1.45855e-32
-1.40802e-27
1.83548e-32
1.45855e-32
-9.65348e-37
1.83548e-32
-1.26605e-36
1.83548e-32
-1.26605e-36
8.67864e-33
-6.50009e-37
-1.40802e-27
1.83548e-32
-7.3449e-28
8.67864e-33
-6.94831e-19
2.09111e-23
-9.93492e-19
2.88064e-23
2.09111e-23
-1.03873e-27
2.88064e-23
-1.40802e-27
2.88064e-23
-1.40802e-27
1.51185e-23
-7.3449e-28
-9.93492e-19
2.88064e-23
-5.41089e-19
1.51185e-23
-3.2884e-08
-2.67288e-08
0.000533628
1.16352e-06
-2.67288e-08
3.87429e-12
1.16352e-06
-1.03551e-10
1.16352e-06
-1.03551e-10
2.36408e-06
-2.12521e-10
0.000533628
1.16352e-06
0.0010673
2.36408e-06
3.87429e-12
-2.05103e-16
-1.03551e-10
5.86525e-15
-2.05103e-16
1.1333e-20
5.86525e-15
-3.39268e-19
5.86525e-15
-3.39268e-19
1.20419e-14
-6.94831e-19
-1.03551e-10
5.86525e-15
-2.12521e-10
1.20419e-14
-2.12521e-10
1.20419e-14
-3.21318e-10
1.77266e-14
1.20419e-14
-6.94831e-19
1.77266e-14
-9.93492e-19
1.77266e-14
-9.93492e-19
1.00217e-14
-5.41089e-19
-3.21318e-10
1.77266e-14
-1.88147e-10
1.00217e-14
0.0010673
2.36408e-06
0.00160099
3.57936e-06
2.36408e-06
-2.12521e-10
3.57936e-06
-3.21318e-10
3.57936e-06
-3.21318e-10
2.18037e-06
-1.88147e-10
0.00160099
3.57936e-06
0.000978364
2.18037e-06
6.37666e-37
1.32324e-42
1.24858e-36
5.35817e-43
1.32324e-42
4.46096e-46
5.35817e-43
8.65621e-46
5.35817e-43
8.65621e-46
-7.82473e-43
6.75541e-46
1.24858e-36
5.35817e-43
9.66913e-37
-7.82473e-43
4.46096e-46
5.58606e-51
8.65621e-46
9.45772e-51
5.58606e-51
2.62993e-55
9.45772e-51
5.01131e-55
9.45772e-51
5.01131e-55
6.53066e-51
3.88958e-55
8.65621e-46
9.45772e-51
6.75541e-46
6.53066e-51
6.75541e-46
6.53066e-51
3.64082e-46
3.40445e-51
6.53066e-51
3.88958e-55
3.40445e-51
2.10895e-55
3.40445e-51
2.10895e-55
5.72829e-53
4.01109e-57
3.64082e-46
3.40445e-51
8.06559e-48
5.72829e-53
9.66913e-37
-7.82473e-43
5.13499e-37
-5.39239e-43
-7.82473e-43
6.75541e-46
-5.39239e-43
3.64082e-46
-5.39239e-43
3.64082e-46
-3.1373e-44
8.06559e-48
5.13499e-37
-5.39239e-43
1.30751e-38
-3.1373e-44
2.62993e-55
4.62562e-60
5.01131e-55
8.29271e-60
4.62562e-60
1.28473e-64
8.29271e-60
2.4129e-64
8.29271e-60
2.4129e-64
6.09327e-60
1.85995e-64
5.01131e-55
8.29271e-60
3.88958e-55
6.09327e-60
1.28473e-64
2.38044e-69
2.4129e-64
4.34665e-69
2.38044e-69
5.06762e-74
4.34665e-69
9.43965e-74
4.34665e-69
9.43965e-74
3.26533e-69
7.24874e-74
2.4129e-64
4.34665e-69
1.85995e-64
3.26533e-69
1.85995e-64
3.26533e-69
1.00986e-64
1.75558e-69
3.26533e-69
7.24874e-74
1.75558e-69
3.93655e-74
1.75558e-69
3.93655e-74
2.52505e-71
5.51388e-76
1.00986e-64
1.75558e-69
1.64493e-66
2.52505e-71
3.88958e-55
6.09327e-60
2.10895e-55
3.24456e-60
6.09327e-60
1.85995e-64
3.24456e-60
1.00986e-64
3.24456e-60
1.00986e-64
5.2144e-62
1.64493e-66
2.10895e-55
3.24456e-60
4.01109e-57
5.2144e-62
4.01109e-57
5.2144e-62
-2.05122e-55
-3.17078e-60
5.2144e-62
1.64493e-66
-3.17078e-60
-9.86348e-65
-3.17078e-60
-9.86348e-65
-6.09525e-60
-1.8593e-64
-2.05122e-55
-3.17078e-60
-3.88713e-55
-6.09525e-60
1.64493e-66
2.52505e-71
-9.86348e-65
-1.71986e-69
2.52505e-71
5.51388e-76
-1.71986e-69
-3.8581e-74
-1.71986e-69
-3.8581e-74
-3.26584e-69
-7.24745e-74
-9.86348e-65
-1.71986e-69
-1.8593e-64
-3.26584e-69
-1.8593e-64
-3.26584e-69
-2.4351e-64
-4.38429e-69
-3.26584e-69
-7.24745e-74
-4.38429e-69
-9.51545e-74
-4.38429e-69
-9.51545e-74
-2.40726e-69
-5.12139e-74
-2.4351e-64
-4.38429e-69
-1.30046e-64
-2.40726e-69
-3.88713e-55
-6.09525e-60
-5.06424e-55
-8.37495e-60
-6.09525e-60
-1.8593e-64
-8.37495e-60
-2.4351e-64
-8.37495e-60
-2.4351e-64
-4.68495e-60
-1.30046e-64
-5.06424e-55
-8.37495e-60
-2.66728e-55
-4.68495e-60
1.30751e-38
-3.1373e-44
-4.94114e-37
4.90095e-43
-3.1373e-44
8.06559e-48
4.90095e-43
-3.52342e-46
4.90095e-43
-3.52342e-46
7.6658e-43
-6.74841e-46
-4.94114e-37
4.90095e-43
-9.65348e-37
7.6658e-43
8.06559e-48
5.72829e-53
-3.52342e-46
-3.32377e-51
5.72829e-53
4.01109e-57
-3.32377e-51
-2.05122e-55
-3.32377e-51
-2.05122e-55
-6.53667e-51
-3.88713e-55
-3.52342e-46
-3.32377e-51
-6.74841e-46
-6.53667e-51
-6.74841e-46
-6.53667e-51
-8.76147e-46
-9.56445e-51
-6.53667e-51
-3.88713e-55
-9.56445e-51
-5.06424e-55
-9.56445e-51
-5.06424e-55
-5.66617e-51
-2.66728e-55
-8.76147e-46
-9.56445e-51
-4.5349e-46
-5.66617e-51
-9.65348e-37
7.6658e-43
-1.26605e-36
-5.39238e-43
7.6658e-43
-6.74841e-46
-5.39238e-43
-8.76147e-46
-5.39238e-43
-8.76147e-46
-1.33659e-42
-4.5349e-46
-1.26605e-36
-5.39238e-43
-6.50009e-37
-1.33659e-42
5.06762e-74
8.92592e-79
9.43965e-74
1.64185e-78
8.92592e-79
1.6037e-83
1.64185e-78
2.97511e-83
1.64185e-78
2.97511e-83
1.24646e-78
2.2819e-83
9.43965e-74
1.64185e-78
7.24874e-74
1.24646e-78
1.6037e-83
2.59472e-88
2.97511e-83
4.78708e-88
2.59472e-88
4.10188e-93
4.78708e-88
7.59464e-93
4.78708e-88
7.59464e-93
3.65447e-88
5.8259e-93
2.97511e-83
4.78708e-88
2.2819e-83
3.65447e-88
2.2819e-83
3.65447e-88
1.2395e-83
1.9808e-88
3.65447e-88
5.8259e-93
1.9808e-88
3.16557e-93
1.9808e-88
3.16557e-93
2.20273e-90
3.32577e-95
1.2395e-83
1.9808e-88
1.50061e-85
2.20273e-90
7.24874e-74
1.24646e-78
3.93655e-74
6.73663e-79
1.24646e-78
2.2819e-83
6.73663e-79
1.2395e-83
6.73663e-79
1.2395e-83
8.54348e-81
1.50061e-85
3.93655e-74
6.73663e-79
5.51388e-76
8.54348e-81
4.10188e-93
6.047e-98
7.59464e-93
1.11689e-97
6.047e-98
8.58693e-103
1.11689e-97
1.58826e-102
1.11689e-97
1.58826e-102
8.55291e-98
1.21913e-102
7.59464e-93
1.11689e-97
5.8259e-93
8.55291e-98
8.58693e-103
1.15489e-107
1.58826e-102
2.13376e-107
1.15489e-107
1.49092e-112
2.13376e-107
2.75599e-112
2.13376e-107
2.75599e-112
1.63702e-107
2.11696e-112
1.58826e-102
2.13376e-107
1.21913e-102
1.63702e-107
1.21913e-102
1.63702e-107
6.62627e-103
8.89454e-108
1.63702e-107
2.11696e-112
8.89454e-108
1.15086e-112
8.89454e-108
1.15086e-112
7.56273e-110
9.17104e-115
6.62627e-103
8.89454e-108
6.05765e-105
7.56273e-110
5.8259e-93
8.55291e-98
3.16557e-93
4.64319e-98
8.55291e-98
1.21913e-102
4.64319e-98
6.62627e-103
4.64319e-98
6.62627e-103
4.51703e-100
6.05765e-105
3.16557e-93
4.64319e-98
3.32577e-95
4.51703e-100
3.32577e-95
4.51703e-100
-3.11845e-93
-4.57932e-98
4.51703e-100
6.05765e-105
-4.57932e-98
-6.5405e-103
-4.57932e-98
-6.5405e-103
-8.55302e-98
-1.2191e-102
-3.11845e-93
-4.57932e-98
-5.82564e-93
-8.55302e-98
6.05765e-105
7.56273e-110
-6.5405e-103
-8.78757e-108
7.56273e-110
9.17104e-115
-8.78757e-108
-1.13788e-112
-8.78757e-108
-1.13788e-112
-1.63702e-107
-2.11691e-112
-6.5405e-103
-8.78757e-108
-1.2191e-102
-1.63702e-107
-1.2191e-102
-1.63702e-107
-1.59675e-102
-2.14442e-107
-1.63702e-107
-2.11691e-112
-2.14442e-107
-2.76883e-112
-2.14442e-107
-2.76883e-112
-1.16244e-107
-1.50002e-112
-1.59675e-102
-2.14442e-107
-8.64705e-103
-1.16244e-107
-5.82564e-93
-8.55302e-98
-7.64113e-93
-1.12329e-97
-8.55302e-98
-1.2191e-102
-1.12329e-97
-1.59675e-102
-1.12329e-97
-1.59675e-102
-6.09233e-98
-8.64705e-103
-7.64113e-93
-1.12329e-97
-4.13483e-93
-6.09233e-98
5.51388e-76
8.54348e-81
-3.8581e-74
-6.61584e-79
8.54348e-81
1.50061e-85
-6.61584e-79
-1.21821e-83
-6.61584e-79
-1.21821e-83
-1.24656e-78
-2.2817e-83
-3.8581e-74
-6.61584e-79
-7.24745e-74
-1.24656e-78
1.50061e-85
2.20273e-90
-1.21821e-83
-1.94966e-88
2.20273e-90
3.32577e-95
-1.94966e-88
-3.11845e-93
-1.94966e-88
-3.11845e-93
-3.6546e-88
-5.82564e-93
-1.21821e-83
-1.94966e-88
-2.2817e-83
-3.6546e-88
-2.2817e-83
-3.6546e-88
-2.99598e-83
-4.81857e-88
-3.6546e-88
-5.82564e-93
-4.81857e-88
-7.64113e-93
-4.81857e-88
-7.64113e-93
-2.61703e-88
-4.13483e-93
-2.99598e-83
-4.81857e-88
-1.6185e-83
-2.61703e-88
-7.24745e-74
-1.24656e-78
-9.51545e-74
-1.65424e-78
-1.24656e-78
-2.2817e-83
-1.65424e-78
-2.99598e-83
-1.65424e-78
-2.99598e-83
-9.01384e-79
-1.6185e-83
-9.51545e-74
-1.65424e-78
-5.12139e-74
-9.01384e-79
1.49092e-112
1.83715e-117
2.75599e-112
3.39413e-117
1.83715e-117
2.17363e-122
3.39413e-117
4.01625e-122
3.39413e-117
4.01625e-122
2.60704e-117
3.08694e-122
2.75599e-112
3.39413e-117
2.11696e-112
2.60704e-117
2.17363e-122
2.46585e-127
4.01625e-122
4.55476e-127
2.46585e-127
2.69017e-132
4.55476e-127
4.96893e-132
4.55476e-127
4.96893e-132
3.50128e-127
3.82116e-132
4.01625e-122
4.55476e-127
3.08694e-122
3.50128e-127
3.08694e-122
3.50128e-127
1.67838e-122
1.90354e-127
3.50128e-127
3.82116e-132
1.90354e-127
2.07765e-132
1.90354e-127
2.07765e-132
1.23596e-129
1.26205e-134
1.67838e-122
1.90354e-127
1.16724e-124
1.23596e-129
2.11696e-112
2.60704e-117
1.15086e-112
1.41711e-117
2.60704e-117
3.08694e-122
1.41711e-117
1.67838e-122
1.41711e-117
1.67838e-122
1.05288e-119
1.16724e-124
1.15086e-112
1.41711e-117
9.17104e-115
1.05288e-119
2.69017e-132
2.82276e-137
4.96893e-132
5.21271e-137
2.82276e-137
2.85368e-142
5.21271e-137
5.26932e-142
5.21271e-137
5.26932e-142
4.00926e-137
4.05382e-142
4.96893e-132
5.21271e-137
3.82116e-132
4.00926e-137
2.85368e-142
2.78127e-147
5.26932e-142
5.13475e-147
2.78127e-147
2.61642e-152
5.13475e-147
4.82986e-152
5.13475e-147
4.82986e-152
3.95087e-147
3.71693e-152
5.26932e-142
5.13475e-147
4.05382e-142
3.95087e-147
4.05382e-142
3.95087e-147
2.2041e-142
2.14803e-147
3.95087e-147
3.71693e-152
2.14803e-147
2.0208e-152
2.14803e-147
2.0208e-152
1.06613e-149
9.38201e-155
2.2041e-142
2.14803e-147
1.17017e-144
1.06613e-149
3.82116e-132
4.00926e-137
2.07765e-132
2.17983e-137
4.00926e-137
4.05382e-142
2.17983e-137
2.2041e-142
2.17983e-137
2.2041e-142
1.23723e-139
1.17017e-144
2.07765e-132
2.17983e-137
1.26205e-134
1.23723e-139
1.26205e-134
1.23723e-139
-2.05978e-132
-2.16231e-137
1.23723e-139
1.17017e-144
-2.16231e-137
-2.18752e-142
-2.16231e-137
-2.18752e-142
-4.00916e-137
-4.05371e-142
-2.05978e-132
-2.16231e-137
-3.82107e-132
-4.00916e-137
1.17017e-144
1.06613e-149
-2.18752e-142
-2.13293e-147
1.06613e-149
9.38201e-155
-2.13293e-147
-2.0075e-152
-2.13293e-147
-2.0075e-152
-3.95075e-147
-3.71681e-152
-2.18752e-142
-2.13293e-147
-4.05371e-142
-3.95075e-147
-4.05371e-142
-3.95075e-147
-5.2856e-142
-5.14957e-147
-3.95075e-147
-3.71681e-152
-5.14957e-147
-4.84287e-152
-5.14957e-147
-4.84287e-152
-2.79176e-147
-2.62563e-152
-5.2856e-142
-5.14957e-147
-2.86522e-142
-2.79176e-147
-3.82107e-132
-4.00916e-137
-4.98654e-132
-5.22997e-137
-4.00916e-137
-4.05371e-142
-5.22997e-137
-5.2856e-142
-5.22997e-137
-5.2856e-142
-2.83498e-137
-2.86522e-142
-4.98654e-132
-5.22997e-137
-2.70265e-132
-2.83498e-137
9.17104e-115
1.05288e-119
-1.13788e-112
-1.40221e-117
1.05288e-119
1.16724e-124
-1.40221e-117
-1.66186e-122
-1.40221e-117
-1.66186e-122
-2.60701e-117
-3.08687e-122
-1.13788e-112
-1.40221e-117
-2.11691e-112
-2.60701e-117
1.16724e-124
1.23596e-129
-1.66186e-122
-1.88605e-127
1.23596e-129
1.26205e-134
-1.88605e-127
-2.05978e-132
-1.88605e-127
-2.05978e-132
-3.50121e-127
-3.82107e-132
-1.66186e-122
-1.88605e-127
-3.08687e-122
-3.50121e-127
-3.08687e-122
-3.50121e-127
-4.03257e-122
-4.57206e-127
-3.50121e-127
-3.82107e-132
-4.57206e-127
-4.98654e-132
-4.57206e-127
-4.98654e-132
-2.4781e-127
-2.70265e-132
-4.03257e-122
-4.57206e-127
-2.18519e-122
-2.4781e-127
-2.11691e-112
-2.60701e-117
-2.76883e-112
-3.40891e-117
-2.60701e-117
-3.08687e-122
-3.40891e-117
-4.03257e-122
-3.40891e-117
-4.03257e-122
-1.84761e-117
-2.18519e-122
-2.76883e-112
-3.40891e-117
-1.50002e-112
-1.84761e-117
2.61642e-152
2.37749e-157
4.82986e-152
4.38819e-157
2.37749e-157
2.08873e-162
4.38819e-157
3.85478e-162
4.38819e-157
3.85478e-162
3.37745e-157
2.96728e-162
4.82986e-152
4.38819e-157
3.71693e-152
3.37745e-157
2.08873e-162
1.77548e-167
3.85478e-162
3.27628e-167
1.77548e-167
1.46136e-172
3.27628e-167
2.69633e-172
3.27628e-167
2.69633e-172
2.52222e-167
2.07596e-172
3.85478e-162
3.27628e-167
2.96728e-162
2.52222e-167
2.96728e-162
2.52222e-167
1.6131e-162
1.37108e-167
2.52222e-167
2.07596e-172
1.37108e-167
1.12844e-172
1.37108e-167
1.12844e-172
5.21019e-170
4.01251e-175
1.6131e-162
1.37108e-167
6.5525e-165
5.21019e-170
3.71693e-152
3.37745e-157
2.0208e-152
1.83615e-157
3.37745e-157
2.96728e-162
1.83615e-157
1.6131e-162
1.83615e-157
1.6131e-162
7.97242e-160
6.5525e-165
2.0208e-152
1.83615e-157
9.38201e-155
7.97242e-160
1.46136e-172
1.16545e-177
2.69633e-172
2.15014e-177
1.16545e-177
9.01211e-183
2.15014e-177
1.66247e-182
2.15014e-177
1.66247e-182
1.65556e-177
1.28017e-182
2.69633e-172
2.15014e-177
2.07596e-172
1.65556e-177
9.01211e-183
6.76108e-188
1.66247e-182
1.2471e-187
6.76108e-188
4.92404e-193
1.2471e-187
9.08174e-193
1.2471e-187
9.08174e-193
9.60382e-188
6.99419e-193
1.66247e-182
1.2471e-187
1.28017e-182
9.60382e-188
1.28017e-182
9.60382e-188
6.95797e-183
5.2196e-188
9.60382e-188
6.99419e-193
5.2196e-188
3.8011e-193
5.2196e-188
3.8011e-193
1.52155e-190
1.03735e-195
6.95797e-183
5.2196e-188
2.1669e-185
1.52155e-190
2.07596e-172
1.65556e-177
1.12844e-172
8.99877e-178
1.65556e-177
1.28017e-182
8.99877e-178
6.95797e-183
8.99877e-178
6.95797e-183
2.99426e-180
2.1669e-185
1.12844e-172
8.99877e-178
4.01251e-175
2.99426e-180
4.01251e-175
2.99426e-180
-1.12274e-172
-8.95623e-178
2.99426e-180
2.1669e-185
-8.95623e-178
-6.92718e-183
-8.95623e-178
-6.92718e-183
-1.6555e-177
-1.28011e-182
-1.12274e-172
-8.95623e-178
-2.07587e-172
-1.6555e-177
2.1669e-185
1.52155e-190
-6.92718e-183
-5.19797e-188
1.52155e-190
1.03735e-195
-5.19797e-188
-3.78634e-193
-5.19797e-188
-3.78634e-193
-9.6034e-188
-6.99387e-193
-6.92718e-183
-5.19797e-188
-1.28011e-182
-9.6034e-188
-1.28011e-182
-9.6034e-188
-1.66544e-182
-1.24918e-187
-9.6034e-188
-6.99387e-193
-1.24918e-187
-9.09585e-193
-1.24918e-187
-9.09585e-193
-6.77577e-188
-4.93403e-193
-1.66544e-182
-1.24918e-187
-9.0331e-183
-6.77577e-188
-2.07587e-172
-1.6555e-177
-2.70185e-172
-2.15424e-177
-1.6555e-177
-1.28011e-182
-2.15424e-177
-1.66544e-182
-2.15424e-177
-1.66544e-182
-1.16836e-177
-9.0331e-183
-2.70185e-172
-2.15424e-177
-1.46526e-172
-1.16836e-177
9.38201e-155
7.97242e-160
-2.0075e-152
-1.82484e-157
7.97242e-160
6.5525e-165
-1.82484e-157
-1.6038e-162
-1.82484e-157
-1.6038e-162
-3.37733e-157
-2.96718e-162
-2.0075e-152
-1.82484e-157
-3.71681e-152
-3.37733e-157
6.5525e-165
5.21019e-170
-1.6038e-162
-1.36369e-167
5.21019e-170
4.01251e-175
-1.36369e-167
-1.12274e-172
-1.36369e-167
-1.12274e-172
-2.52213e-167
-2.07587e-172
-1.6038e-162
-1.36369e-167
-2.96718e-162
-2.52213e-167
-2.96718e-162
-2.52213e-167
-3.86384e-162
-3.28346e-167
-2.52213e-167
-2.07587e-172
-3.28346e-167
-2.70185e-172
-3.28346e-167
-2.70185e-172
-1.78057e-167
-1.46526e-172
-3.86384e-162
-3.28346e-167
-2.09514e-162
-1.78057e-167
-3.71681e-152
-3.37733e-157
-4.84287e-152
-4.39923e-157
-3.37733e-157
-2.96718e-162
-4.39923e-157
-3.86384e-162
-4.39923e-157
-3.86384e-162
-2.3853e-157
-2.09514e-162
-4.84287e-152
-4.39923e-157
-2.62563e-152
-2.3853e-157
4.92404e-193
3.48324e-198
9.08174e-193
6.42383e-198
3.48324e-198
2.3946e-203
6.42383e-198
4.41579e-203
6.42383e-198
4.41579e-203
4.9475e-198
3.40111e-203
9.08174e-193
6.42383e-198
6.99419e-193
4.9475e-198
2.3946e-203
1.6006e-208
4.41579e-203
2.95139e-208
1.6006e-208
1.04074e-213
2.95139e-208
1.91891e-213
2.95139e-208
1.91891e-213
2.27331e-208
1.4781e-213
4.41579e-203
2.95139e-208
3.40111e-203
2.27331e-208
3.40111e-203
2.27331e-208
1.84821e-203
1.23529e-208
2.27331e-208
1.4781e-213
1.23529e-208
8.03154e-214
1.23529e-208
8.03154e-214
2.76873e-211
1.68639e-216
1.84821e-203
1.23529e-208
4.42277e-206
2.76873e-211
6.99419e-193
4.9475e-198
3.8011e-193
2.68867e-198
4.9475e-198
3.40111e-203
2.68867e-198
1.84821e-203
2.68867e-198
1.84821e-203
6.87036e-201
4.42277e-206
3.8011e-193
2.68867e-198
1.03735e-195
6.87036e-201
1.04074e-213
6.58577e-219
1.91891e-213
1.2142e-218
6.58577e-219
4.05752e-224
1.2142e-218
7.48025e-224
1.2142e-218
7.48025e-224
9.3531e-219
5.76231e-224
1.91891e-213
1.2142e-218
1.4781e-213
9.3531e-219
4.05752e-224
2.43489e-229
7.48025e-224
4.48859e-229
2.43489e-229
1.42374e-234
4.48859e-229
2.62445e-234
4.48859e-229
2.62445e-234
3.45783e-229
2.02182e-234
7.48025e-224
4.48859e-229
5.76231e-224
3.45783e-229
5.76231e-224
3.45783e-229
3.1308e-224
1.87865e-229
3.45783e-229
2.02182e-234
1.87865e-229
1.09843e-234
1.87865e-229
1.09843e-234
3.24679e-232
1.77984e-237
3.1308e-224
1.87865e-229
5.77242e-227
3.24679e-232
1.4781e-213
9.3531e-219
8.03154e-214
5.08197e-219
9.3531e-219
5.76231e-224
5.08197e-219
3.1308e-224
5.08197e-219
3.1308e-224
9.99813e-222
5.77242e-227
8.03154e-214
5.08197e-219
1.68639e-216
9.99813e-222
1.68639e-216
9.99813e-222
-8.00747e-214
-5.06769e-219
9.99813e-222
5.77242e-227
-5.06769e-219
-3.12255e-224
-5.06769e-219
-3.12255e-224
-9.35263e-219
-5.76201e-224
-8.00747e-214
-5.06769e-219
-1.47803e-213
-9.35263e-219
5.77242e-227
3.24679e-232
-3.12255e-224
-1.87401e-229
3.24679e-232
1.77984e-237
-1.87401e-229
-1.09588e-234
-1.87401e-229
-1.09588e-234
-3.45765e-229
-2.02172e-234
-3.12255e-224
-1.87401e-229
-5.76201e-224
-3.45765e-229
-5.76201e-224
-3.45765e-229
-7.48792e-224
-4.49288e-229
-3.45765e-229
-2.02172e-234
-4.49288e-229
-2.62679e-234
-4.49288e-229
-2.62679e-234
-2.43792e-229
-1.4254e-234
-7.48792e-224
-4.49288e-229
-4.06294e-224
-2.43792e-229
-1.47803e-213
-9.35263e-219
-1.92117e-213
-1.21553e-218
-9.35263e-219
-5.76201e-224