<VTKFile type="UnstructuredGrid" version="0.1" byte_order="LittleEndian">
<UnstructuredGrid>
<Piece NumberOfPoints="2048" NumberOfCells="512">
<Points>
<DataArray type="Float64" NumberOfComponents="3" format="ascii">
0 0 0
0.125 0 0
0 0.125 0
0.125 0.125 0
0.125 0 0
0.25 0 0
0.125 0.125 0
0.25 0.125 0
0.125 0.125 0
0.25 0.125 0
0.125 0.25 0
0.25 0.25 0
0 0.125 0
0.125 0.125 0
0 0.25 0
0.125 0.25 0
0.25 0 0
0.375 0 0
0.25 0.125 0
0.375 0.125 0
0.375 0 0
0.5 0 0
0.375 0.125 0
0.5 0.125 0
0.375 0.125 0
0.5 0.125 0
0.375 0.25 0
0.5 0.25 0
0.25 0.125 0
0.375 0.125 0
0.25 0.25 0
0.375 0.25 0
0.25 0.25 0
0.375 0.25 0
0.25 0.375 0
0.375 0.375 0
0.375 0.25 0
0.5 0.25 0
0.375 0.375 0
0.5 0.375 0
0.375 0.375 0
0.5 0.375 0
0.375 0.5 0
0.5 0.5 0
0.25 0.375 0
0.375 0.375 0
0.25 0.5 0
0.375 0.5 0
0 0.25 0
0.125 0.25 0
0 0.375 0
0.125 0.375 0
0.125 0.25 0
0.25 0.25 0
0.125 0.375 0
0.25 0.375 0
0.125 0.375 0
0.25 0.375 0
0.125 0.5 0
0.25 0.5 0
0 0.375 0
0.125 0.375 0
0 0.5 0
0.125 0.5 0
0.5 0 0
0.625 0 0
0.5 0.125 0
0.625 0.125 0
0.625 0 0
0.75 0 0
0.625 0.125 0
0.75 0.125 0
0.625 0.125 0
0.75 0.125 0
0.625 0.25 0
0.75 0.25 0
0.5 0.125 0
0.625 0.125 0
0.5 0.25 0
0.625 0.25 0
0.75 0 0
0.875 0 0
0.75 0.125 0
0.875 0.125 0
0.875 0 0
1 0 0
0.875 0.125 0
1 0.125 0
0.875 0.125 0
1 0.125 0
0.875 0.25 0
1 0.25 0
0.75 0.125 0
0.875 0.125 0
0.75 0.25 0
0.875 0.25 0
0.75 0.25 0
0.875 0.25 0
0.75 0.375 0
0.875 0.375 0
0.875 0.25 0
1 0.25 0
0.875 0.375 0
1 0.375 0
0.875 0.375 0
1 0.375 0
0.875 0.5 0
1 0.5 0
0.75 0.375 0
0.875 0.375 0
0.75 0.5 0
0.875 0.5 0
0.5 0.25 0
0.625 0.25 0
0.5 0.375 0
0.625 0.375 0
0.625 0.25 0
0.75 0.25 0
0.625 0.375 0
0.75 0.375 0
0.625 0.375 0
0.75 0.375 0
0.625 0.5 0
0.75 0.5 0
0.5 0.375 0
0.625 0.375 0
0.5 0.5 0
0.625 0.5 0
0.5 0.5 0
0.625 0.5 0
0.5 0.625 0
0.625 0.625 0
0.625 0.5 0
0.75 0.5 0
0.625 0.625 0
0.75 0.625 0
0.625 0.625 0
0.75 0.625 0
0.625 0.75 0
0.75 0.75 0
0.5 0.625 0
0.625 0.625 0
0.5 0.75 0
0.625 0.75 0
0.75 0.5 0
0.875 0.5 0
0.75 0.625 0
0.875 0.625 0
0.875 0.5 0
1 0.5 0
0.875 0.625 0
1 0.625 0
0.875 0.625 0
1 0.625 0
0.875 0.75 0
1 0.75 0
0.75 0.625 0
0.875 0.625 0
0.75 0.75 0
0.875 0.75 0
0.75 0.75 0
0.875 0.75 0
0.75 0.875 0
0.875 0.875 0
0.875 0.75 0
1 0.75 0
0.875 0.875 0
1 0.875 0
0.875 0.875 0
1 0.875 0
0.875 1 0
1 1 0
0.75 0.875 0
0.875 0.875 0
0.75 1 0
0.875 1 0
0.5 0.75 0
0.625 0.75 0
0.5 0.875 0
0.625 0.875 0
0.625 0.75 0
0.75 0.75 0
0.625 0.875 0
0.75 0.875 0
0.625 0.875 0
0.75 0.875 0
0.625 1 0
0.75 1 0
0.5 0.875 0
0.625 0.875 0
0.5 1 0
0.625 1 0
0 0.5 0
0.125 0.5 0
0 0.625 0
0.125 0.625 0
0.125 0.5 0
0.25 0.5 0
0.125 0.625 0
0.25 0.625 0
0.125 0.625 0
0.25 0.625 0
0.125 0.75 0
0.25 0.75 0
0 0.625 0
0.125 0.625 0
0 0.75 0
0.125 0.75 0
0.25 0.5 0
0.375 0.5 0
0.25 0.625 0
0.375 0.625 0
0.375 0.5 0
0.5 0.5 0
0.375 0.625 0
0.5 0.625 0
0.375 0.625 0
0.5 0.625 0
0.375 0.75 0
0.5 0.75 0
0.25 0.625 0
0.375 0.625 0
0.25 0.75 0
0.375 0.75 0
0.25 0.75 0
0.375 0.75 0
0.25 0.875 0
0.375 0.875 0
0.375 0.75 0
0.5 0.75 0
0.375 0.875 0
0.5 0.875 0
0.375 0.875 0
0.5 0.875 0
0.375 1 0
0.5 1 0
0.25 0.875 0
0.375 0.875 0
0.25 1 0
0.375 1 0
0 0.75 0
0.125 0.75 0
0 0.875 0
0.125 0.875 0
0.125 0.75 0
0.25 0.75 0
0.125 0.875 0
0.25 0.875 0
0.125 0.875 0
0.25 0.875 0
0.125 1 0
0.25 1 0
0 0.875 0
0.125 0.875 0
0 1 0
0.125 1 0
1 0 0
1.125 0 0
1 0.125 0
1.125 0.125 0
1.125 0 0
1.25 0 0
1.125 0.125 0
1.25 0.125 0
1.125 0.125 0
1.25 0.125 0
1.125 0.25 0
1.25 0.25 0
1 0.125 0
1.125 0.125 0
1 0.25 0
1.125 0.25 0
1.25 0 0
1.375 0 0
1.25 0.125 0
1.375 0.125 0
1.375 0 0
1.5 0 0
1.375 0.125 0
1.5 0.125 0
1.375 0.125 0
1.5 0.125 0
1.375 0.25 0
1.5 0.25 0
1.25 0.125 0
1.375 0.125 0
1.25 0.25 0
1.375 0.25 0
1.25 0.25 0
1.375 0.25 0
1.25 0.375 0
1.375 0.375 0
1.375 0.25 0
1.5 0.25 0
1.375 0.375 0
1.5 0.375 0
1.375 0.375 0
1.5 0.375 0
1.375 0.5 0
1.5 0.5 0
1.25 0.375 0
1.375 0.375 0
1.25 0.5 0
1.375 0.5 0
1 0.25 0
1.125 0.25 0
1 0.375 0
1.125 0.375 0
1.125 0.25 0
1.25 0.25 0
1.125 0.375 0
1.25 0.375 0
1.125 0.375 0
1.25 0.375 0
1.125 0.5 0
1.25 0.5 0
1 0.375 0
1.125 0.375 0
1 0.5 0
1.125 0.5 0
1.5 0 0
1.625 0 0
1.5 0.125 0
1.625 0.125 0
1.625 0 0
1.75 0 0
1.625 0.125 0
1.75 0.125 0
1.625 0.125 0
1.75 0.125 0
1.625 0.25 0
1.75 0.25 0
1.5 0.125 0
1.625 0.125 0
1.5 0.25 0
1.625 0.25 0
1.75 0 0
1.875 0 0
1.75 0.125 0
1.875 0.125 0
1.875 0 0
2 0 0
1.875 0.125 0
2 0.125 0
1.875 0.125 0
2 0.125 0
1.875 0.25 0
2 0.25 0
1.75 0.125 0
1.875 0.125 0
1.75 0.25 0
1.875 0.25 0
1.75 0.25 0
1.875 0.25 0
1.75 0.375 0
1.875 0.375 0
1.875 0.25 0
2 0.25 0
1.875 0.375 0
2 0.375 0
1.875 0.375 0
2 0.375 0
1.875 0.5 0
2 0.5 0
1.75 0.375 0
1.875 0.375 0
1.75 0.5 0
1.875 0.5 0
1.5 0.25 0
1.625 0.25 0
1.5 0.375 0
1.625 0.375 0
1.625 0.25 0
1.75 0.25 0
1.625 0.375 0
1.75 0.375 0
1.625 0.375 0
1.75 0.375 0
1.625 0.5 0
1.75 0.5 0
1.5 0.375 0
1.625 0.375 0
1.5 0.5 0
1.625 0.5 0
1.5 0.5 0
1.625 0.5 0
1.5 0.625 0
1.625 0.625 0
1.625 0.5 0
1.75 0.5 0
1.625 0.625 0
1.75 0.625 0
1.625 0.625 0
1.75 0.625 0
1.625 0.75 0
1.75 0.75 0
1.5 0.625 0
1.625 0.625 0
1.5 0.75 0
1.625 0.75 0
1.75 0.5 0
1.875 0.5 0
1.75 0.625 0
1.875 0.625 0
1.875 0.5 0
2 0.5 0
1.875 0.625 0
2 0.625 0
1.875 0.625 0
2 0.625 0
1.875 0.75 0
2 0.75 0
1.75 0.625 0
1.875 0.625 0
1.75 0.75 0
1.875 0.75 0
1.75 0.75 0
1.875 0.75 0
1.75 0.875 0
1.875 0.875 0
1.875 0.75 0
2 0.75 0
1.875 0.875 0
2 0.875 0
1.875 0.875 0
2 0.875 0
1.875 1 0
2 1 0
1.75 0.875 0
1.875 0.875 0
1.75 1 0
1.875 1 0
1.5 0.75 0
1.625 0.75 0
1.5 0.875 0
1.625 0.875 0
1.625 0.75 0
1.75 0.75 0
1.625 0.875 0
1.75 0.875 0
1.625 0.875 0
1.75 0.875 0
1.625 1 0
1.75 1 0
1.5 0.875 0
1.625 0.875 0
1.5 1 0
1.625 1 0
1 0.5 0
1.125 0.5 0
1 0.625 0
1.125 0.625 0
1.125 0.5 0
1.25 0.5 0
1.125 0.625 0
1.25 0.625 0
1.125 0.625 0
1.25 0.625 0
1.125 0.75 0
1.25 0.75 0
1 0.625 0
1.125 0.625 0
1 0.75 0
1.125 0.75 0
1.25 0.5 0
1.375 0.5 0
1.25 0.625 0
1.375 0.625 0
1.375 0.5 0
1.5 0.5 0
1.375 0.625 0
1.5 0.625 0
1.375 0.625 0
1.5 0.625 0
1.375 0.75 0
1.5 0.75 0
1.25 0.625 0
1.375 0.625 0
1.25 0.75 0
1.375 0.75 0
1.25 0.75 0
1.375 0.75 0
1.25 0.875 0
1.375 0.875 0
1.375 0.75 0
1.5 0.75 0
1.375 0.875 0
1.5 0.875 0
1.375 0.875 0
1.5 0.875 0
1.375 1 0
1.5 1 0
1.25 0.875 0
1.375 0.875 0
1.25 1 0
1.375 1 0
1 0.75 0
1.125 0.75 0
1 0.875 0
1.125 0.875 0
1.125 0.75 0
1.25 0.75 0
1.125 0.875 0
1.25 0.875 0
1.125 0.875 0
1.25 0.875 0
1.125 1 0
1.25 1 0
1 0.875 0
1.125 0.875 0
1 1 0
1.125 1 0
2 0 0
2.125 0 0
2 0.125 0
2.125 0.125 0
2.125 0 0
2.25 0 0
2.125 0.125 0
2.25 0.125 0
2.125 0.125 0
2.25 0.125 0
2.125 0.25 0
2.25 0.25 0
2 0.125 0
2.125 0.125 0
2 0.25 0
2.125 0.25 0
2.25 0 0
2.375 0 0
2.25 0.125 0
2.375 0.125 0
2.375 0 0
2.5 0 0
2.375 0.125 0
2.5 0.125 0
2.375 0.125 0
2.5 0.125 0
2.375 0.25 0
2.5 0.25 0
2.25 0.125 0
2.375 0.125 0
2.25 0.25 0
2.375 0.25 0
2.25 0.25 0
2.375 0.25 0
2.25 0.375 0
2.375 0.375 0
2.375 0.25 0
2.5 0.25 0
2.375 0.375 0
2.5 0.375 0
2.375 0.375 0
2.5 0.375 0
2.375 0.5 0
2.5 0.5 0
2.25 0.375 0
2.375 0.375 0
2.25 0.5 0
2.375 0.5 0
2 0.25 0
2.125 0.25 0
2 0.375 0
2.125 0.375 0
2.125 0.25 0
2.25 0.25 0
2.125 0.375 0
2.25 0.375 0
2.125 0.375 0
2.25 0.375 0
2.125 0.5 0
2.25 0.5 0
2 0.375 0
2.125 0.375 0
2 0.5 0
2.125 0.5 0
2.5 0 0
2.625 0 0
2.5 0.125 0
2.625 0.125 0
2.625 0 0
2.75 0 0
2.625 0.125 0
2.75 0.125 0
2.625 0.125 0
2.75 0.125 0
2.625 0.25 0
2.75 0.25 0
2.5 0.125 0
2.625 0.125 0
2.5 0.25 0
2.625 0.25 0
2.75 0 0
2.875 0 0
2.75 0.125 0
2.875 0.125 0
2.875 0 0
3 0 0
2.875 0.125 0
3 0.125 0
2.875 0.125 0
3 0.125 0
2.875 0.25 0
3 0.25 0
2.75 0.125 0
2.875 0.125 0
2.75 0.25 0
2.875 0.25 0
2.75 0.25 0
2.875 0.25 0
2.75 0.375 0
2.875 0.375 0
2.875 0.25 0
3 0.25 0
2.875 0.375 0
3 0.375 0
2.875 0.375 0
3 0.375 0
2.875 0.5 0
3 0.5 0
2.75 0.375 0
2.875 0.375 0
2.75 0.5 0
2.875 0.5 0
2.5 0.25 0
2.625 0.25 0
2.5 0.375 0
2.625 0.375 0
2.625 0.25 0
2.75 0.25 0
2.625 0.375 0
2.75 0.375 0
2.625 0.375 0
2.75 0.375 0
2.625 0.5 0
2.75 0.5 0
2.5 0.375 0
2.625 0.375 0
2.5 0.5 0
2.625 0.5 0
2.5 0.5 0
2.625 0.5 0
2.5 0.625 0
2.625 0.625 0
2.625 0.5 0
2.75 0.5 0
2.625 0.625 0
2.75 0.625 0
2.625 0.625 0
2.75 0.625 0
2.625 0.75 0
2.75 0.75 0
2.5 0.625 0
2.625 0.625 0
2.5 0.75 0
2.625 0.75 0
2.75 0.5 0
2.875 0.5 0
2.75 0.625 0
2.875 0.625 0
2.875 0.5 0
3 0.5 0
2.875 0.625 0
3 0.625 0
2.875 0.625 0
3 0.625 0
2.875 0.75 0
3 0.75 0
2.75 0.625 0
2.875 0.625 0
2.75 0.75 0
2.875 0.75 0
2.75 0.75 0
2.875 0.75 0
2.75 0.875 0
2.875 0.875 0
2.875 0.75 0
3 0.75 0
2.875 0.875 0
3 0.875 0
2.875 0.875 0
3 0.875 0
2.875 1 0
3 1 0
2.75 0.875 0
2.875 0.875 0
2.75 1 0
2.875 1 0
2.5 0.75 0
2.625 0.75 0
2.5 0.875 0
2.625 0.875 0
2.625 0.75 0
2.75 0.75 0
2.625 0.875 0
2.75 0.875 0
2.625 0.875 0
2.75 0.875 0
2.625 1 0
2.75 1 0
2.5 0.875 0
2.625 0.875 0
2.5 1 0
2.625 1 0
2 0.5 0
2.125 0.5 0
2 0.625 0
2.125 0.625 0
2.125 0.5 0
2.25 0.5 0
2.125 0.625 0
2.25 0.625 0
2.125 0.625 0
2.25 0.625 0
2.125 0.75 0
2.25 0.75 0
2 0.625 0
2.125 0.625 0
2 0.75 0
2.125 0.75 0
2.25 0.5 0
2.375 0.5 0
2.25 0.625 0
2.375 0.625 0
2.375 0.5 0
2.5 0.5 0
2.375 0.625 0
2.5 0.625 0
2.375 0.625 0
2.5 0.625 0
2.375 0.75 0
2.5 0.75 0
2.25 0.625 0
2.375 0.625 0
2.25 0.75 0
2.375 0.75 0
2.25 0.75 0
2.375 0.75 0
2.25 0.875 0
2.375 0.875 0
2.375 0.75 0
2.5 0.75 0
2.375 0.875 0
2.5 0.875 0
2.375 0.875 0
2.5 0.875 0
2.375 1 0
2.5 1 0
2.25 0.875 0
2.375 0.875 0
2.25 1 0
2.375 1 0
2 0.75 0
2.125 0.75 0
2 0.875 0
2.125 0.875 0
2.125 0.75 0
2.25 0.75 0
2.125 0.875 0
2.25 0.875 0
2.125 0.875 0
2.25 0.875 0
2.125 1 0
2.25 1 0
2 0.875 0
2.125 0.875 0
2 1 0
2.125 1 0
3 0 0
3.125 0 0
3 0.125 0
3.125 0.125 0
3.125 0 0
3.25 0 0
3.125 0.125 0
3.25 0.125 0
3.125 0.125 0
3.25 0.125 0
3.125 0.25 0
3.25 0.25 0
3 0.125 0
3.125 0.125 0
3 0.25 0
3.125 0.25 0
3.25 0 0
3.375 0 0
3.25 0.125 0
3.375 0.125 0
3.375 0 0
3.5 0 0
3.375 0.125 0
3.5 0.125 0
3.375 0.125 0
3.5 0.125 0
3.375 0.25 0
3.5 0.25 0
3.25 0.125 0
3.375 0.125 0
3.25 0.25 0
3.375 0.25 0
3.25 0.25 0
3.375 0.25 0
3.25 0.375 0
3.375 0.375 0
3.375 0.25 0
3.5 0.25 0
3.375 0.375 0
3.5 0.375 0
3.375 0.375 0
3.5 0.375 0
3.375 0.5 0
3.5 0.5 0
3.25 0.375 0
3.375 0.375 0
3.25 0.5 0
[...]
<CellData Scalars="attribute">
<DataArray type="Int32" Name="attribute" format="ascii">
1
1
1
1
1
1
1
1
1
1
1
1
1
1
1
1
1
1
1
1
1
1
1
1
1
1
1
1
1
1
1
1
1
1
1
1
1
1
1
1
1
1
1
1
1
1
1
1
1
1
1
1
1
1
1
1
1
1
1
1
1
1
1
1
1
1
1
1
1
1
1
1
1
1
1
1
1
1
1
1
1
1
1
1
1
1
1
1
1
1
1
1
1
1
1
1
1
1
1
1
1
1
1
1
1
1
1
1
1
1
1
1
1
1
1
1
1
1
1
1
1
1
1
1
1
1
1
1
1
1
1
1
1
1
1
1
1
1
1
1
1
1
1
1
1
1
1
1
1
1
1
1
1
1
1
1
1
1
1
1
1
1
1
1
1
1
1
1
1
1
1
1
1
1
1
1
1
1
1
1
1
1
1
1
1
1
1
1
1
1
1
1
1
1
1
1
1
1
1
1
1
1
1
1
1
1
1
1
1
1
1
1
1
1
1
1
1
1
1
1
1
1
1
1
1
1
1
1
1
1
1
1
1
1
1
1
1
1
1
1
1
1
1
1
1
1
1
1
1
1
1
1
1
1
1
1
2
2
2
2
2
2
2
2
2
2
2
2
2
2
2
2
2
2
2
2
2
2
2
2
2
2
2
2
2
2
2
2
2
2
2
2
2
2
2
2
2
2
2
2
2
2
2
2
2
2
2
2
2
2
2
2
2
2
2
2
2
2
2
2
2
2
2
2
2
2
2
2
2
2
2
2
2
2
2
2
2
2
2
2
2
2
2
2
2
2
2
2
2
2
2
2
2
2
2
2
2
2
2
2
2
2
2
2
2
2
2
2
2
2
2
2
2
2
2
2
2
2
2
2
2
2
2
2
2
2
2
2
2
2
2
2
2
2
2
2
2
2
2
2
2
2
2
2
2
2
2
2
2
2
2
2
2
2
2
2
2
2
2
2
2
2
2
2
2
2
2
2
2
2
2
2
2
2
2
2
2
2
2
2
2
2
2
2
2
2
2
2
2
2
2
2
2
2
2
2
2
2
2
2
2
2
2
2
2
2
2
2
2
2
2
2
2
2
2
2
2
2
2
2
2
2
2
2
2
2
2
2
2
2
2
2
2
2
2
2
2
2
2
2
2
2
2
2
2
2
2
2
2
2
2
2
</DataArray>
</CellData>
<PointData >
<DataArray type="Float64" Name="Pressure" NumberOfComponents="1" format="ascii" >
-0.000315752
-3.70521e-07
-0.000516697
-6.13349e-07
-3.70521e-07
1.78268e-11
-6.13349e-07
3.08714e-11
-6.13349e-07
3.08714e-11
-4.11769e-07
2.09641e-11
-0.000516697
-6.13349e-07
-0.000344469
-4.11769e-07
1.78268e-11
-5.47083e-16
3.08714e-11
-9.76787e-16
-5.47083e-16
1.70828e-20
-9.76787e-16
3.16218e-20
-9.76787e-16
3.16218e-20
-6.80128e-16
2.26146e-20
3.08714e-11
-9.76787e-16
2.09641e-11
-6.80128e-16
2.09641e-11
-6.80128e-16
1.07433e-11
-3.47537e-16
-6.80128e-16
2.26146e-20
-3.47537e-16
1.1568e-20
-3.47537e-16
1.1568e-20
-1.1504e-17
3.66958e-22
1.07433e-11
-3.47537e-16
3.78747e-13
-1.1504e-17
-0.000344469
-4.11769e-07
-0.000172238
-2.09094e-07
-4.11769e-07
2.09641e-11
-2.09094e-07
1.07433e-11
-2.09094e-07
1.07433e-11
-4.63101e-09
3.78747e-13
-0.000172238
-2.09094e-07
-5.69844e-09
-4.63101e-09
1.70828e-20
-2.77113e-25
3.16218e-20
-5.31642e-25
-2.77113e-25
7.80456e-30
-5.31642e-25
1.50558e-29
-5.31642e-25
1.50558e-29
-3.9385e-25
1.13131e-29
3.16218e-20
-5.31642e-25
2.26146e-20
-3.9385e-25
7.80456e-30
-5.36289e-35
1.50558e-29
-1.14077e-34
-5.36289e-35
2.31979e-39
-1.14077e-34
4.542e-39
-1.14077e-34
4.542e-39
-9.22388e-35
3.51723e-39
1.50558e-29
-1.14077e-34
1.13131e-29
-9.22388e-35
1.13131e-29
-9.22388e-35
5.88151e-30
-4.86355e-35
-9.22388e-35
3.51723e-39
-4.86355e-35
1.86785e-39
-4.86355e-35
1.86785e-39
-1.4021e-36
4.75571e-41
5.88151e-30
-4.86355e-35
1.68691e-31
-1.4021e-36
2.26146e-20
-3.9385e-25
1.1568e-20
-2.02703e-25
-3.9385e-25
1.13131e-29
-2.02703e-25
5.88151e-30
-2.02703e-25
5.88151e-30
-6.1907e-27
1.68691e-31
1.1568e-20
-2.02703e-25
3.66958e-22
-6.1907e-27
3.66958e-22
-6.1907e-27
-1.09903e-20
1.93054e-25
-6.1907e-27
1.68691e-31
1.93054e-25
-5.62414e-30
1.93054e-25
-5.62414e-30
3.92438e-25
-1.12832e-29
-1.09903e-20
1.93054e-25
-2.25083e-20
3.92438e-25
1.68691e-31
-1.4021e-36
-5.62414e-30
4.65112e-35
-1.4021e-36
4.75571e-41
4.65112e-35
-1.79734e-39
4.65112e-35
-1.79734e-39
9.19898e-35
-3.51153e-39
-5.62414e-30
4.65112e-35
-1.12832e-29
9.19898e-35
-1.12832e-29
9.19898e-35
-1.5296e-29
1.15814e-34
9.19898e-35
-3.51153e-39
1.15814e-34
-4.60555e-39
1.15814e-34
-4.60555e-39
5.47995e-35
-2.36469e-39
-1.5296e-29
1.15814e-34
-7.98022e-30
5.47995e-35
-2.25083e-20
3.92438e-25
-3.21855e-20
5.40692e-25
3.92438e-25
-1.12832e-29
5.40692e-25
-1.5296e-29
5.40692e-25
-1.5296e-29
2.83839e-25
-7.98022e-30
-3.21855e-20
5.40692e-25
-1.75319e-20
2.83839e-25
-5.69844e-09
-4.63101e-09
0.000172229
2.0162e-07
-4.63101e-09
3.78747e-13
2.0162e-07
-1.01334e-11
2.0162e-07
-1.01334e-11
4.09659e-07
-2.07966e-11
0.000172229
2.0162e-07
0.000344466
4.09659e-07
3.78747e-13
-1.1504e-17
-1.01334e-11
3.29198e-16
-1.1504e-17
3.66958e-22
3.29198e-16
-1.09903e-20
3.29198e-16
-1.09903e-20
6.75862e-16
-2.25083e-20
-1.01334e-11
3.29198e-16
-2.07966e-11
6.75862e-16
-2.07966e-11
6.75862e-16
-3.14427e-11
9.94963e-16
6.75862e-16
-2.25083e-20
9.94963e-16
-3.21855e-20
9.94963e-16
-3.21855e-20
5.62556e-16
-1.75319e-20
-3.14427e-11
9.94963e-16
-1.84117e-11
5.62556e-16
0.000344466
4.09659e-07
0.000516706
6.20251e-07
4.09659e-07
-2.07966e-11
6.20251e-07
-3.14427e-11
6.20251e-07
-3.14427e-11
3.77834e-07
-1.84117e-11
0.000516706
6.20251e-07
0.000315761
3.77834e-07
2.31979e-39
2.71179e-45
4.542e-39
1.0006e-45
2.71179e-45
5.39886e-49
1.0006e-45
1.04765e-48
1.0006e-45
1.04765e-48
-1.73587e-45
8.17615e-49
4.542e-39
1.0006e-45
3.51723e-39
-1.73587e-45
5.39886e-49
3.87556e-54
1.04765e-48
6.55902e-54
3.87556e-54
1.04975e-58
6.55902e-54
2.0004e-58
6.55902e-54
2.0004e-58
4.52722e-54
1.55271e-58
1.04765e-48
6.55902e-54
8.17615e-49
4.52722e-54
8.17615e-49
4.52722e-54
4.4065e-49
2.35979e-54
4.52722e-54
1.55271e-58
2.35979e-54
8.41897e-59
2.35979e-54
8.41897e-59
3.96761e-56
1.60141e-60
4.4065e-49
2.35979e-54
9.76233e-51
3.96761e-56
3.51723e-39
-1.73587e-45
1.86785e-39
-1.18111e-45
-1.73587e-45
8.17615e-49
-1.18111e-45
4.4065e-49
-1.18111e-45
4.4065e-49
-6.69471e-47
9.76233e-51
1.86785e-39
-1.18111e-45
4.75571e-41
-6.69471e-47
1.04975e-58
1.05531e-63
2.0004e-58
1.89172e-63
1.05531e-63
1.67444e-68
1.89172e-63
3.14495e-68
1.89172e-63
3.14495e-68
1.38985e-63
2.42433e-68
2.0004e-58
1.89172e-63
1.55271e-58
1.38985e-63
1.67444e-68
1.76477e-73
3.14495e-68
3.2223e-73
1.76477e-73
2.13255e-78
3.2223e-73
3.97246e-78
3.2223e-73
3.97246e-78
2.42058e-73
3.05054e-78
3.14495e-68
3.2223e-73
2.42433e-68
2.42058e-73
2.42433e-68
2.42058e-73
1.31631e-68
1.30139e-73
2.42058e-73
3.05054e-78
1.30139e-73
1.65666e-78
1.30139e-73
1.65666e-78
1.8717e-75
2.32067e-80
1.31631e-68
1.30139e-73
2.14433e-70
1.8717e-75
1.55271e-58
1.38985e-63
8.41897e-59
7.40044e-64
1.38985e-63
2.42433e-68
7.40044e-64
1.31631e-68
7.40044e-64
1.31631e-68
1.18915e-65
2.14433e-70
8.41897e-59
7.40044e-64
1.60141e-60
1.18915e-65
1.60141e-60
1.18915e-65
-8.18848e-59
-7.23218e-64
1.18915e-65
2.14433e-70
-7.23218e-64
-1.28566e-68
-7.23218e-64
-1.28566e-68
-1.3903e-63
-2.42349e-68
-8.18848e-59
-7.23218e-64
-1.55173e-58
-1.3903e-63
2.14433e-70
1.8717e-75
-1.28566e-68
-1.27491e-73
1.8717e-75
2.32067e-80
-1.27491e-73
-1.62364e-78
-1.27491e-73
-1.62364e-78
-2.42096e-73
-3.04999e-78
-1.28566e-68
-1.27491e-73
-2.42349e-68
-2.42096e-73
-2.42349e-68
-2.42096e-73
-3.17389e-68
-3.2502e-73
-2.42096e-73
-3.04999e-78
-3.2502e-73
-4.00436e-78
-3.2502e-73
-4.00436e-78
-1.78465e-73
-2.15518e-78
-3.17389e-68
-3.2502e-73
-1.69494e-68
-1.78465e-73
-1.55173e-58
-1.3903e-63
-2.02153e-58
-1.91048e-63
-1.3903e-63
-2.42349e-68
-1.91048e-63
-3.17389e-68
-1.91048e-63
-3.17389e-68
-1.06884e-63
-1.69494e-68
-2.02153e-58
-1.91048e-63
-1.06466e-58
-1.06884e-63
4.75571e-41
-6.69471e-47
-1.79734e-39
1.07634e-45
-6.69471e-47
9.76233e-51
1.07634e-45
-4.26441e-49
1.07634e-45
-4.26441e-49
1.70241e-45
-8.16768e-49
-1.79734e-39
1.07634e-45
-3.51153e-39
1.70241e-45
9.76233e-51
3.96761e-56
-4.26441e-49
-2.30391e-54
3.96761e-56
1.60141e-60
-2.30391e-54
-8.18848e-59
-2.30391e-54
-8.18848e-59
-4.53142e-54
-1.55173e-58
-4.26441e-49
-2.30391e-54
-8.16768e-49
-4.53142e-54
-8.16768e-49
-4.53142e-54
-1.06039e-48
-6.63304e-54
-4.53142e-54
-1.55173e-58
-6.63304e-54
-2.02153e-58
-6.63304e-54
-2.02153e-58
-3.93113e-54
-1.06466e-58
-1.06039e-48
-6.63304e-54
-5.48835e-49
-3.93113e-54
-3.51153e-39
1.70241e-45
-4.60555e-39
-1.00621e-45
1.70241e-45
-8.16768e-49
-1.00621e-45
-1.06039e-48
-1.00621e-45
-1.06039e-48
-2.73867e-45
-5.48835e-49
-4.60555e-39
-1.00621e-45
-2.36469e-39
-2.73867e-45
2.13255e-78
2.12435e-83
3.97246e-78
3.90748e-83
2.12435e-83
2.15249e-88
3.90748e-83
3.99323e-88
3.90748e-83
3.99323e-88
2.96644e-83
3.06282e-88
3.97246e-78
3.90748e-83
3.05054e-78
2.96644e-83
2.15249e-88
1.95715e-93
3.99323e-88
3.61077e-93
1.95715e-93
1.73309e-98
3.61077e-93
3.20883e-98
3.61077e-93
3.20883e-98
2.75645e-93
2.46153e-98
3.99323e-88
3.61077e-93
3.06282e-88
2.75645e-93
3.06282e-88
2.75645e-93
1.6637e-88
1.49405e-93
2.75645e-93
2.46153e-98
1.49405e-93
1.33751e-98
1.49405e-93
1.33751e-98
1.66146e-95
1.40527e-100
1.6637e-88
1.49405e-93
2.0143e-90
1.66146e-95
3.05054e-78
2.96644e-83
1.65666e-78
1.60323e-83
2.96644e-83
3.06282e-88
1.60323e-83
1.6637e-88
1.60323e-83
1.6637e-88
2.03322e-85
2.0143e-90
1.65666e-78
1.60323e-83
2.32067e-80
2.03322e-85
1.73309e-98
1.42604e-103
3.20883e-98
2.6339e-103
1.42604e-103
1.12629e-108
2.6339e-103
2.08322e-108
2.6339e-103
2.08322e-108
2.01698e-103
1.59906e-108
3.20883e-98
2.6339e-103
2.46153e-98
2.01698e-103
1.12629e-108
8.39381e-114
2.08322e-108
1.55082e-113
8.39381e-114
5.98203e-119
1.55082e-113
1.10578e-118
1.55082e-113
1.10578e-118
1.18979e-113
8.49385e-119
2.08322e-108
1.55082e-113
1.59906e-108
1.18979e-113
1.59906e-108
1.18979e-113
8.69126e-109
6.46457e-114
1.18979e-113
8.49385e-119
6.46457e-114
4.61759e-119
6.46457e-114
4.61759e-119
5.49676e-116
3.67983e-121
8.69126e-109
6.46457e-114
7.94579e-111
5.49676e-116
2.46153e-98
2.01698e-103
1.33751e-98
1.09497e-103
2.01698e-103
1.59906e-108
1.09497e-103
8.69126e-109
1.09497e-103
8.69126e-109
1.06525e-105
7.94579e-111
1.33751e-98
1.09497e-103
1.40527e-100
1.06525e-105
1.40527e-100
1.06525e-105
-1.31759e-98
-1.07991e-103
1.06525e-105
7.94579e-111
-1.07991e-103
-8.57876e-109
-1.07991e-103
-8.57876e-109
-2.01701e-103
-1.59901e-108
-1.31759e-98
-1.07991e-103
-2.46142e-98
-2.01701e-103
7.94579e-111
5.49676e-116
-8.57876e-109
-6.38683e-114
5.49676e-116
3.67983e-121
-6.38683e-114
-4.56551e-119
-6.38683e-114
-4.56551e-119
-1.18979e-113
-8.49366e-119
-8.57876e-109
-6.38683e-114
-1.59901e-108
-1.18979e-113
-1.59901e-108
-1.18979e-113
-2.09435e-108
-1.55857e-113
-1.18979e-113
-8.49366e-119
-1.55857e-113
-1.11094e-118
-1.55857e-113
-1.11094e-118
-8.44868e-114
-6.01853e-119
-2.09435e-108
-1.55857e-113
-1.13418e-108
-8.44868e-114
-2.46142e-98
-2.01701e-103
-3.22848e-98
-2.649e-103
-2.01701e-103
-1.59901e-108
-2.649e-103
-2.09435e-108
-2.649e-103
-2.09435e-108
-1.43673e-103
-1.13418e-108
-3.22848e-98
-2.649e-103
-1.74702e-98
-1.43673e-103
2.32067e-80
2.03322e-85
-1.62364e-78
-1.57448e-83
2.03322e-85
2.0143e-90
-1.57448e-83
-1.63512e-88
-1.57448e-83
-1.63512e-88
-2.96667e-83
-3.06255e-88
-1.62364e-78
-1.57448e-83
-3.04999e-78
-2.96667e-83
2.0143e-90
1.66146e-95
-1.63512e-88
-1.47056e-93
1.66146e-95
1.40527e-100
-1.47056e-93
-1.31759e-98
-1.47056e-93
-1.31759e-98
-2.75655e-93
-2.46142e-98
-1.63512e-88
-1.47056e-93
-3.06255e-88
-2.75655e-93
-3.06255e-88
-2.75655e-93
-4.02123e-88
-3.63452e-93
-2.75655e-93
-2.46142e-98
-3.63452e-93
-3.22848e-98
-3.63452e-93
-3.22848e-98
-1.97398e-93
-1.74702e-98
-4.02123e-88
-3.63452e-93
-2.17235e-88
-1.97398e-93
-3.04999e-78
-2.96667e-83
-4.00436e-78
-3.93697e-83
-2.96667e-83
-3.06255e-88
-3.93697e-83
-4.02123e-88
-3.93697e-83
-4.02123e-88
-2.14527e-83
-2.17235e-88
-4.00436e-78
-3.93697e-83
-2.15518e-78
-2.14527e-83
5.98203e-119
4.0534e-124
1.10578e-118
7.48863e-124
4.0534e-124
2.62672e-129
7.48863e-124
4.85343e-129
7.48863e-124
4.85343e-129
5.75203e-124
3.73041e-129
1.10578e-118
7.48863e-124
8.49385e-119
5.75203e-124
2.62672e-129
1.62543e-134
4.85343e-129
3.00239e-134
1.62543e-134
9.6323e-140
3.00239e-134
1.77915e-139
3.00239e-134
1.77915e-139
2.30796e-134
1.36818e-139
4.85343e-129
3.00239e-134
3.73041e-129
2.30796e-134
3.73041e-129
2.30796e-134
2.02824e-129
1.25477e-134
2.30796e-134
1.36818e-139
1.25477e-134
7.43913e-140
1.25477e-134
7.43913e-140
8.1474e-137
4.51897e-142
2.02824e-129
1.25477e-134
1.41059e-131
8.1474e-137
8.49385e-119
5.75203e-124
4.61759e-119
3.12662e-124
5.75203e-124
3.73041e-129
3.12662e-124
2.02824e-129
3.12662e-124
2.02824e-129
2.32308e-126
1.41059e-131
4.61759e-119
3.12662e-124
3.67983e-121
2.32308e-126
9.6323e-140
5.46629e-145
1.77915e-139
1.00944e-144
5.46629e-145
2.97553e-150
1.00944e-144
5.4943e-150
1.00944e-144
5.4943e-150
7.76393e-145
4.2269e-150
1.77915e-139
1.00944e-144
1.36818e-139
7.76393e-145
2.97553e-150
1.55437e-155
5.4943e-150
2.86966e-155
1.55437e-155
7.80063e-161
2.86966e-155
1.43998e-160
2.86966e-155
1.43998e-160
2.20802e-155
1.10817e-160
5.4943e-150
2.86966e-155
4.2269e-150
2.20802e-155
4.2269e-150
2.20802e-155
2.29821e-150
1.20047e-155
2.20802e-155
1.10817e-160
1.20047e-155
6.02483e-161
1.20047e-155
6.02483e-161
5.95844e-158
2.79725e-163
2.29821e-150
1.20047e-155
1.22017e-152
5.95844e-158
1.36818e-139
7.76393e-145
7.43913e-140
4.22125e-145
7.76393e-145
4.2269e-150
4.22125e-145
2.29821e-150
4.22125e-145
2.29821e-150
2.39597e-147
1.22017e-152
7.43913e-140
4.22125e-145
4.51897e-142
2.39597e-147
4.51897e-142
2.39597e-147
-7.37514e-140
-4.18732e-145
2.39597e-147
1.22017e-152
-4.18732e-145
-2.28092e-150
-4.18732e-145
-2.28092e-150
-7.76374e-145
-4.22678e-150
-7.37514e-140
-4.18732e-145
-1.36815e-139
-7.76374e-145
1.22017e-152
5.95844e-158
-2.28092e-150
-1.19203e-155
5.95844e-158
2.79725e-163
-1.19203e-155
-5.98518e-161
-1.19203e-155
-5.98518e-161
-2.20796e-155
-1.10813e-160
-2.28092e-150
-1.19203e-155
-4.22678e-150
-2.20796e-155
-4.22678e-150
-2.20796e-155
-5.51128e-150
-2.87795e-155
-2.20796e-155
-1.10813e-160
-2.87795e-155
-1.44386e-160
-2.87795e-155
-1.44386e-160
-1.56024e-155
-7.8281e-161
-5.51128e-150
-2.87795e-155
-2.98756e-150
-1.56024e-155
-1.36815e-139
-7.76374e-145
-1.78546e-139
-1.01279e-144
-7.76374e-145
-4.22678e-150
-1.01279e-144
-5.51128e-150
-1.01279e-144
-5.51128e-150
-5.48995e-145
-2.98756e-150
-1.78546e-139
-1.01279e-144
-9.67697e-140
-5.48995e-145
3.67983e-121
2.32308e-126
-4.56551e-119
-3.09376e-124
2.32308e-126
1.41059e-131
-3.09376e-124
-2.00827e-129
-3.09376e-124
-2.00827e-129
-5.75196e-124
-3.73033e-129
-4.56551e-119
-3.09376e-124
-8.49366e-119
-5.75196e-124
1.41059e-131
8.1474e-137
-2.00827e-129
-1.24324e-134
8.1474e-137
4.51897e-142
-1.24324e-134
-7.37514e-140
-1.24324e-134
-7.37514e-140
-2.30791e-134
-1.36815e-139
-2.00827e-129
-1.24324e-134
-3.73033e-129
-2.30791e-134
-3.73033e-129
-2.30791e-134
-4.87316e-129
-3.01379e-134
-2.30791e-134
-1.36815e-139
-3.01379e-134
-1.78546e-139
-3.01379e-134
-1.78546e-139
-1.6335e-134
-9.67697e-140
-4.87316e-129
-3.01379e-134
-2.6407e-129
-1.6335e-134
-8.49366e-119
-5.75196e-124
-1.11094e-118
-7.52125e-124
-5.75196e-124
-3.73033e-129
-7.52125e-124
-4.87316e-129
-7.52125e-124
-4.87316e-129
-4.07649e-124
-2.6407e-129
-1.11094e-118
-7.52125e-124
-6.01853e-119
-4.07649e-124
7.80063e-161
3.76311e-166
1.43998e-160
6.94566e-166
3.76311e-166
1.74642e-171
6.94566e-166
3.22304e-171
6.94566e-166
3.22304e-171
5.34584e-166
2.48099e-171
1.43998e-160
6.94566e-166
1.10817e-160
5.34584e-166
1.74642e-171
7.80162e-177
3.22304e-171
1.43962e-176
7.80162e-177
3.35675e-182
1.43962e-176
6.1935e-182
1.43962e-176
6.1935e-182
1.10828e-176
4.76848e-182
3.22304e-171
1.43962e-176
2.48099e-171
1.10828e-176
2.48099e-171
1.10828e-176
1.34873e-171
6.02463e-177
1.10828e-176
4.76848e-182
6.02463e-177
2.59203e-182
6.02463e-177
2.59203e-182
2.28947e-179
9.21703e-185
1.34873e-171
6.02463e-177
5.47881e-174
2.28947e-179
1.10817e-160
5.34584e-166
6.02483e-161
2.90626e-166
5.34584e-166
2.48099e-171
2.90626e-166
1.34873e-171
2.90626e-166
1.34873e-171
1.26192e-168
5.47881e-174
6.02483e-161
2.90626e-166
2.79725e-163
1.26192e-168
3.35675e-182
1.39178e-187
6.1935e-182
2.56767e-187
1.39178e-187
5.56349e-193
2.56767e-187
1.0263e-192
2.56767e-187
1.0263e-192
1.97706e-187
7.90291e-193
6.1935e-182
2.56767e-187
4.76848e-182
1.97706e-187
5.56349e-193
2.14503e-198
1.0263e-192
3.95657e-198
2.14503e-198
7.97982e-204
3.95657e-198
1.47177e-203
3.95657e-198
1.47177e-203
3.04691e-198
1.13346e-203
1.0263e-192
3.95657e-198
7.90291e-193
3.04691e-198
7.90291e-193
3.04691e-198
4.29539e-193
1.65597e-198
3.04691e-198
1.13346e-203
1.65597e-198
6.15999e-204
1.65597e-198
6.15999e-204
4.82743e-201
1.68116e-206
4.29539e-193
1.65597e-198
1.33774e-195
4.82743e-201
4.76848e-182
1.97706e-187
2.59203e-182
1.07462e-187
1.97706e-187
7.90291e-193
1.07462e-187
4.29539e-193
1.07462e-187
4.29539e-193
3.57582e-190
1.33774e-195
2.59203e-182
1.07462e-187
9.21703e-185
3.57582e-190
9.21703e-185
3.57582e-190
-2.57894e-182
-1.06954e-187
3.57582e-190
1.33774e-195
-1.06954e-187
-4.27638e-193
-1.06954e-187
-4.27638e-193
-1.97698e-187
-7.90258e-193
-2.57894e-182
-1.06954e-187
-4.7683e-182
-1.97698e-187
1.33774e-195
4.82743e-201
-4.27638e-193
-1.64911e-198
4.82743e-201
1.68116e-206
-1.64911e-198
-6.13607e-204
-1.64911e-198
-6.13607e-204
-3.04678e-198
-1.13341e-203
-4.27638e-193
-1.64911e-198
-7.90258e-193
-3.04678e-198
-7.90258e-193
-3.04678e-198
-1.02813e-192
-3.96316e-198
-3.04678e-198
-1.13341e-203
-3.96316e-198
-1.47406e-203
-3.96316e-198
-1.47406e-203
-2.14969e-198
-7.996e-204
-1.02813e-192
-3.96316e-198
-5.57645e-193
-2.14969e-198
-4.7683e-182
-1.97698e-187
-6.20617e-182
-2.57258e-187
-1.97698e-187
-7.90258e-193
-2.57258e-187
-1.02813e-192
-2.57258e-187
-1.02813e-192
-1.39525e-187
-5.57645e-193
-6.20617e-182
-2.57258e-187
-3.36572e-182
-1.39525e-187
2.79725e-163
1.26192e-168
-5.98518e-161
-2.88837e-166
1.26192e-168
5.47881e-174
-2.88837e-166
-1.34096e-171
-2.88837e-166
-1.34096e-171
-5.34566e-166
-2.4809e-171
-5.98518e-161
-2.88837e-166
-1.10813e-160
-5.34566e-166
5.47881e-174
2.28947e-179
-1.34096e-171
-5.99214e-177
2.28947e-179
9.21703e-185
-5.99214e-177
-2.57894e-182
-5.99214e-177
-2.57894e-182
-1.10824e-176
-4.7683e-182
-1.34096e-171
-5.99214e-177
-2.4809e-171
-1.10824e-176
-2.4809e-171
-1.10824e-176
-3.23061e-171
-1.44278e-176
-1.10824e-176
-4.7683e-182
-1.44278e-176
-6.20617e-182
-1.44278e-176
-6.20617e-182
-7.82397e-177
-3.36572e-182
-3.23061e-171
-1.44278e-176
-1.75178e-171
-7.82397e-177
-1.10813e-160
-5.34566e-166
-1.44386e-160
-6.96314e-166
-5.34566e-166
-2.4809e-171
-6.96314e-166
-3.23061e-171
-6.96314e-166
-3.23061e-171
-3.77548e-166
-1.75178e-171
-1.44386e-160
-6.96314e-166
-7.8281e-161
-3.77548e-166
7.97982e-204
2.86529e-209
1.47177e-203
5.28419e-209
2.86529e-209
9.93308e-215
5.28419e-209
1.83172e-214
5.28419e-209
1.83172e-214
4.06976e-209
1.41082e-214
1.47177e-203
5.28419e-209
1.13346e-203
4.06976e-209
9.93308e-215
3.32538e-220
1.83172e-214
6.13175e-220
3.32538e-220
1.07529e-225
6.13175e-220
1.98261e-225
6.13175e-220
1.98261e-225
4.72297e-220
1.52716e-225
1.83172e-214
6.13175e-220
1.41082e-214
4.72297e-220
1.41082e-214
4.72297e-220
7.6666e-215
2.56642e-220
4.72297e-220
1.52716e-225
2.56642e-220
8.29812e-226
2.56642e-220
8.29812e-226
5.75242e-223
1.74241e-228
7.6666e-215
2.56642e-220
1.83467e-217
5.75242e-223
1.13346e-203
4.06976e-209
6.15999e-204
2.21167e-209
4.06976e-209
1.41082e-214
2.21167e-209
7.6666e-215
2.21167e-209
7.6666e-215
5.65165e-212
1.83467e-217
6.15999e-204
2.21167e-209
1.68116e-206
5.65165e-212
1.07529e-225
3.3589e-231
1.98261e-225
6.19269e-231
3.3589e-231
1.01367e-236
6.19269e-231
1.86875e-236
6.19269e-231
1.86875e-236
4.77028e-231
1.43957e-236
1.98261e-225
6.19269e-231
1.52716e-225
4.77028e-231
1.01367e-236
2.95559e-242
1.86875e-236
5.44846e-242
2.95559e-242
8.32592e-248
5.44846e-242
1.53475e-247
5.44846e-242
1.53475e-247
4.19727e-242
1.18234e-247
1.86875e-236
5.44846e-242
1.43957e-236
4.19727e-242
1.43957e-236
4.19727e-242
7.82152e-237
2.28039e-242
4.19727e-242
1.18234e-247
2.28039e-242
6.4235e-248
2.28039e-242
6.4235e-248
3.94121e-245
1.04086e-250
7.82152e-237
2.28039e-242
1.44213e-239
3.94121e-245
1.52716e-225
4.77028e-231
8.29812e-226
2.59191e-231
4.77028e-231
1.43957e-236
2.59191e-231
7.82152e-237
2.59191e-231
7.82152e-237
5.0994e-234
1.44213e-239
8.29812e-226
2.59191e-231
1.74241e-228
5.0994e-234
1.74241e-228
5.0994e-234
-8.27326e-226
-2.58463e-231
5.0994e-234
1.44213e-239
-2.58463e-231
-7.8009e-237
-2.58463e-231
-7.8009e-237
-4.77004e-231
-1.43949e-236
-8.27326e-226
-2.58463e-231
-1.52709e-225
-4.77004e-231
1.44213e-239
3.94121e-245
-7.8009e-237
-2.27476e-242
3.94121e-245
1.04086e-250
-2.27476e-242
-6.40859e-248
-2.27476e-242
-6.40859e-248
-4.19705e-242
-1.18228e-247
-7.8009e-237
-2.27476e-242
-1.43949e-236
-4.19705e-242
-1.43949e-236
-4.19705e-242
-1.87067e-236
-5.45367e-242
-4.19705e-242
-1.18228e-247
-5.45367e-242
-1.53612e-247
-5.45367e-242
-1.53612e-247
-2.95927e-242
-8.3356e-248
-1.87067e-236
-5.45367e-242
-1.01502e-236
-2.95927e-242