<VTKFile type="UnstructuredGrid" version="0.1" byte_order="LittleEndian">
<UnstructuredGrid>
<Piece NumberOfPoints="2048" NumberOfCells="512">
<Points>
<DataArray type="Float64" NumberOfComponents="3" format="ascii">
0 0 0
0.125 0 0
0 0.125 0
0.125 0.125 0
0.125 0 0
0.25 0 0
0.125 0.125 0
0.25 0.125 0
0.125 0.125 0
0.25 0.125 0
0.125 0.25 0
0.25 0.25 0
0 0.125 0
0.125 0.125 0
0 0.25 0
0.125 0.25 0
0.25 0 0
0.375 0 0
0.25 0.125 0
0.375 0.125 0
0.375 0 0
0.5 0 0
0.375 0.125 0
0.5 0.125 0
0.375 0.125 0
0.5 0.125 0
0.375 0.25 0
0.5 0.25 0
0.25 0.125 0
0.375 0.125 0
0.25 0.25 0
0.375 0.25 0
0.25 0.25 0
0.375 0.25 0
0.25 0.375 0
0.375 0.375 0
0.375 0.25 0
0.5 0.25 0
0.375 0.375 0
0.5 0.375 0
0.375 0.375 0
0.5 0.375 0
0.375 0.5 0
0.5 0.5 0
0.25 0.375 0
0.375 0.375 0
0.25 0.5 0
0.375 0.5 0
0 0.25 0
0.125 0.25 0
0 0.375 0
0.125 0.375 0
0.125 0.25 0
0.25 0.25 0
0.125 0.375 0
0.25 0.375 0
0.125 0.375 0
0.25 0.375 0
0.125 0.5 0
0.25 0.5 0
0 0.375 0
0.125 0.375 0
0 0.5 0
0.125 0.5 0
0.5 0 0
0.625 0 0
0.5 0.125 0
0.625 0.125 0
0.625 0 0
0.75 0 0
0.625 0.125 0
0.75 0.125 0
0.625 0.125 0
0.75 0.125 0
0.625 0.25 0
0.75 0.25 0
0.5 0.125 0
0.625 0.125 0
0.5 0.25 0
0.625 0.25 0
0.75 0 0
0.875 0 0
0.75 0.125 0
0.875 0.125 0
0.875 0 0
1 0 0
0.875 0.125 0
1 0.125 0
0.875 0.125 0
1 0.125 0
0.875 0.25 0
1 0.25 0
0.75 0.125 0
0.875 0.125 0
0.75 0.25 0
0.875 0.25 0
0.75 0.25 0
0.875 0.25 0
0.75 0.375 0
0.875 0.375 0
0.875 0.25 0
1 0.25 0
0.875 0.375 0
1 0.375 0
0.875 0.375 0
1 0.375 0
0.875 0.5 0
1 0.5 0
0.75 0.375 0
0.875 0.375 0
0.75 0.5 0
0.875 0.5 0
0.5 0.25 0
0.625 0.25 0
0.5 0.375 0
0.625 0.375 0
0.625 0.25 0
0.75 0.25 0
0.625 0.375 0
0.75 0.375 0
0.625 0.375 0
0.75 0.375 0
0.625 0.5 0
0.75 0.5 0
0.5 0.375 0
0.625 0.375 0
0.5 0.5 0
0.625 0.5 0
0.5 0.5 0
0.625 0.5 0
0.5 0.625 0
0.625 0.625 0
0.625 0.5 0
0.75 0.5 0
0.625 0.625 0
0.75 0.625 0
0.625 0.625 0
0.75 0.625 0
0.625 0.75 0
0.75 0.75 0
0.5 0.625 0
0.625 0.625 0
0.5 0.75 0
0.625 0.75 0
0.75 0.5 0
0.875 0.5 0
0.75 0.625 0
0.875 0.625 0
0.875 0.5 0
1 0.5 0
0.875 0.625 0
1 0.625 0
0.875 0.625 0
1 0.625 0
0.875 0.75 0
1 0.75 0
0.75 0.625 0
0.875 0.625 0
0.75 0.75 0
0.875 0.75 0
0.75 0.75 0
0.875 0.75 0
0.75 0.875 0
0.875 0.875 0
0.875 0.75 0
1 0.75 0
0.875 0.875 0
1 0.875 0
0.875 0.875 0
1 0.875 0
0.875 1 0
1 1 0
0.75 0.875 0
0.875 0.875 0
0.75 1 0
0.875 1 0
0.5 0.75 0
0.625 0.75 0
0.5 0.875 0
0.625 0.875 0
0.625 0.75 0
0.75 0.75 0
0.625 0.875 0
0.75 0.875 0
0.625 0.875 0
0.75 0.875 0
0.625 1 0
0.75 1 0
0.5 0.875 0
0.625 0.875 0
0.5 1 0
0.625 1 0
0 0.5 0
0.125 0.5 0
0 0.625 0
0.125 0.625 0
0.125 0.5 0
0.25 0.5 0
0.125 0.625 0
0.25 0.625 0
0.125 0.625 0
0.25 0.625 0
0.125 0.75 0
0.25 0.75 0
0 0.625 0
0.125 0.625 0
0 0.75 0
0.125 0.75 0
0.25 0.5 0
0.375 0.5 0
0.25 0.625 0
0.375 0.625 0
0.375 0.5 0
0.5 0.5 0
0.375 0.625 0
0.5 0.625 0
0.375 0.625 0
0.5 0.625 0
0.375 0.75 0
0.5 0.75 0
0.25 0.625 0
0.375 0.625 0
0.25 0.75 0
0.375 0.75 0
0.25 0.75 0
0.375 0.75 0
0.25 0.875 0
0.375 0.875 0
0.375 0.75 0
0.5 0.75 0
0.375 0.875 0
0.5 0.875 0
0.375 0.875 0
0.5 0.875 0
0.375 1 0
0.5 1 0
0.25 0.875 0
0.375 0.875 0
0.25 1 0
0.375 1 0
0 0.75 0
0.125 0.75 0
0 0.875 0
0.125 0.875 0
0.125 0.75 0
0.25 0.75 0
0.125 0.875 0
0.25 0.875 0
0.125 0.875 0
0.25 0.875 0
0.125 1 0
0.25 1 0
0 0.875 0
0.125 0.875 0
0 1 0
0.125 1 0
1 0 0
1.125 0 0
1 0.125 0
1.125 0.125 0
1.125 0 0
1.25 0 0
1.125 0.125 0
1.25 0.125 0
1.125 0.125 0
1.25 0.125 0
1.125 0.25 0
1.25 0.25 0
1 0.125 0
1.125 0.125 0
1 0.25 0
1.125 0.25 0
1.25 0 0
1.375 0 0
1.25 0.125 0
1.375 0.125 0
1.375 0 0
1.5 0 0
1.375 0.125 0
1.5 0.125 0
1.375 0.125 0
1.5 0.125 0
1.375 0.25 0
1.5 0.25 0
1.25 0.125 0
1.375 0.125 0
1.25 0.25 0
1.375 0.25 0
1.25 0.25 0
1.375 0.25 0
1.25 0.375 0
1.375 0.375 0
1.375 0.25 0
1.5 0.25 0
1.375 0.375 0
1.5 0.375 0
1.375 0.375 0
1.5 0.375 0
1.375 0.5 0
1.5 0.5 0
1.25 0.375 0
1.375 0.375 0
1.25 0.5 0
1.375 0.5 0
1 0.25 0
1.125 0.25 0
1 0.375 0
1.125 0.375 0
1.125 0.25 0
1.25 0.25 0
1.125 0.375 0
1.25 0.375 0
1.125 0.375 0
1.25 0.375 0
1.125 0.5 0
1.25 0.5 0
1 0.375 0
1.125 0.375 0
1 0.5 0
1.125 0.5 0
1.5 0 0
1.625 0 0
1.5 0.125 0
1.625 0.125 0
1.625 0 0
1.75 0 0
1.625 0.125 0
1.75 0.125 0
1.625 0.125 0
1.75 0.125 0
1.625 0.25 0
1.75 0.25 0
1.5 0.125 0
1.625 0.125 0
1.5 0.25 0
1.625 0.25 0
1.75 0 0
1.875 0 0
1.75 0.125 0
1.875 0.125 0
1.875 0 0
2 0 0
1.875 0.125 0
2 0.125 0
1.875 0.125 0
2 0.125 0
1.875 0.25 0
2 0.25 0
1.75 0.125 0
1.875 0.125 0
1.75 0.25 0
1.875 0.25 0
1.75 0.25 0
1.875 0.25 0
1.75 0.375 0
1.875 0.375 0
1.875 0.25 0
2 0.25 0
1.875 0.375 0
2 0.375 0
1.875 0.375 0
2 0.375 0
1.875 0.5 0
2 0.5 0
1.75 0.375 0
1.875 0.375 0
1.75 0.5 0
1.875 0.5 0
1.5 0.25 0
1.625 0.25 0
1.5 0.375 0
1.625 0.375 0
1.625 0.25 0
1.75 0.25 0
1.625 0.375 0
1.75 0.375 0
1.625 0.375 0
1.75 0.375 0
1.625 0.5 0
1.75 0.5 0
1.5 0.375 0
1.625 0.375 0
1.5 0.5 0
1.625 0.5 0
1.5 0.5 0
1.625 0.5 0
1.5 0.625 0
1.625 0.625 0
1.625 0.5 0
1.75 0.5 0
1.625 0.625 0
1.75 0.625 0
1.625 0.625 0
1.75 0.625 0
1.625 0.75 0
1.75 0.75 0
1.5 0.625 0
1.625 0.625 0
1.5 0.75 0
1.625 0.75 0
1.75 0.5 0
1.875 0.5 0
1.75 0.625 0
1.875 0.625 0
1.875 0.5 0
2 0.5 0
1.875 0.625 0
2 0.625 0
1.875 0.625 0
2 0.625 0
1.875 0.75 0
2 0.75 0
1.75 0.625 0
1.875 0.625 0
1.75 0.75 0
1.875 0.75 0
1.75 0.75 0
1.875 0.75 0
1.75 0.875 0
1.875 0.875 0
1.875 0.75 0
2 0.75 0
1.875 0.875 0
2 0.875 0
1.875 0.875 0
2 0.875 0
1.875 1 0
2 1 0
1.75 0.875 0
1.875 0.875 0
1.75 1 0
1.875 1 0
1.5 0.75 0
1.625 0.75 0
1.5 0.875 0
1.625 0.875 0
1.625 0.75 0
1.75 0.75 0
1.625 0.875 0
1.75 0.875 0
1.625 0.875 0
1.75 0.875 0
1.625 1 0
1.75 1 0
1.5 0.875 0
1.625 0.875 0
1.5 1 0
1.625 1 0
1 0.5 0
1.125 0.5 0
1 0.625 0
1.125 0.625 0
1.125 0.5 0
1.25 0.5 0
1.125 0.625 0
1.25 0.625 0
1.125 0.625 0
1.25 0.625 0
1.125 0.75 0
1.25 0.75 0
1 0.625 0
1.125 0.625 0
1 0.75 0
1.125 0.75 0
1.25 0.5 0
1.375 0.5 0
1.25 0.625 0
1.375 0.625 0
1.375 0.5 0
1.5 0.5 0
1.375 0.625 0
1.5 0.625 0
1.375 0.625 0
1.5 0.625 0
1.375 0.75 0
1.5 0.75 0
1.25 0.625 0
1.375 0.625 0
1.25 0.75 0
1.375 0.75 0
1.25 0.75 0
1.375 0.75 0
1.25 0.875 0
1.375 0.875 0
1.375 0.75 0
1.5 0.75 0
1.375 0.875 0
1.5 0.875 0
1.375 0.875 0
1.5 0.875 0
1.375 1 0
1.5 1 0
1.25 0.875 0
1.375 0.875 0
1.25 1 0
1.375 1 0
1 0.75 0
1.125 0.75 0
1 0.875 0
1.125 0.875 0
1.125 0.75 0
1.25 0.75 0
1.125 0.875 0
1.25 0.875 0
1.125 0.875 0
1.25 0.875 0
1.125 1 0
1.25 1 0
1 0.875 0
1.125 0.875 0
1 1 0
1.125 1 0
2 0 0
2.125 0 0
2 0.125 0
2.125 0.125 0
2.125 0 0
2.25 0 0
2.125 0.125 0
2.25 0.125 0
2.125 0.125 0
2.25 0.125 0
2.125 0.25 0
2.25 0.25 0
2 0.125 0
2.125 0.125 0
2 0.25 0
2.125 0.25 0
2.25 0 0
2.375 0 0
2.25 0.125 0
2.375 0.125 0
2.375 0 0
2.5 0 0
2.375 0.125 0
2.5 0.125 0
2.375 0.125 0
2.5 0.125 0
2.375 0.25 0
2.5 0.25 0
2.25 0.125 0
2.375 0.125 0
2.25 0.25 0
2.375 0.25 0
2.25 0.25 0
2.375 0.25 0
2.25 0.375 0
2.375 0.375 0
2.375 0.25 0
2.5 0.25 0
2.375 0.375 0
2.5 0.375 0
2.375 0.375 0
2.5 0.375 0
2.375 0.5 0
2.5 0.5 0
2.25 0.375 0
2.375 0.375 0
2.25 0.5 0
2.375 0.5 0
2 0.25 0
2.125 0.25 0
2 0.375 0
2.125 0.375 0
2.125 0.25 0
2.25 0.25 0
2.125 0.375 0
2.25 0.375 0
2.125 0.375 0
2.25 0.375 0
2.125 0.5 0
2.25 0.5 0
2 0.375 0
2.125 0.375 0
2 0.5 0
2.125 0.5 0
2.5 0 0
2.625 0 0
2.5 0.125 0
2.625 0.125 0
2.625 0 0
2.75 0 0
2.625 0.125 0
2.75 0.125 0
2.625 0.125 0
2.75 0.125 0
2.625 0.25 0
2.75 0.25 0
2.5 0.125 0
2.625 0.125 0
2.5 0.25 0
2.625 0.25 0
2.75 0 0
2.875 0 0
2.75 0.125 0
2.875 0.125 0
2.875 0 0
3 0 0
2.875 0.125 0
3 0.125 0
2.875 0.125 0
3 0.125 0
2.875 0.25 0
3 0.25 0
2.75 0.125 0
2.875 0.125 0
2.75 0.25 0
2.875 0.25 0
2.75 0.25 0
2.875 0.25 0
2.75 0.375 0
2.875 0.375 0
2.875 0.25 0
3 0.25 0
2.875 0.375 0
3 0.375 0
2.875 0.375 0
3 0.375 0
2.875 0.5 0
3 0.5 0
2.75 0.375 0
2.875 0.375 0
2.75 0.5 0
2.875 0.5 0
2.5 0.25 0
2.625 0.25 0
2.5 0.375 0
2.625 0.375 0
2.625 0.25 0
2.75 0.25 0
2.625 0.375 0
2.75 0.375 0
2.625 0.375 0
2.75 0.375 0
2.625 0.5 0
2.75 0.5 0
2.5 0.375 0
2.625 0.375 0
2.5 0.5 0
2.625 0.5 0
2.5 0.5 0
2.625 0.5 0
2.5 0.625 0
2.625 0.625 0
2.625 0.5 0
2.75 0.5 0
2.625 0.625 0
2.75 0.625 0
2.625 0.625 0
2.75 0.625 0
2.625 0.75 0
2.75 0.75 0
2.5 0.625 0
2.625 0.625 0
2.5 0.75 0
2.625 0.75 0
2.75 0.5 0
2.875 0.5 0
2.75 0.625 0
2.875 0.625 0
2.875 0.5 0
3 0.5 0
2.875 0.625 0
3 0.625 0
2.875 0.625 0
3 0.625 0
2.875 0.75 0
3 0.75 0
2.75 0.625 0
2.875 0.625 0
2.75 0.75 0
2.875 0.75 0
2.75 0.75 0
2.875 0.75 0
2.75 0.875 0
2.875 0.875 0
2.875 0.75 0
3 0.75 0
2.875 0.875 0
3 0.875 0
2.875 0.875 0
3 0.875 0
2.875 1 0
3 1 0
2.75 0.875 0
2.875 0.875 0
2.75 1 0
2.875 1 0
2.5 0.75 0
2.625 0.75 0
2.5 0.875 0
2.625 0.875 0
2.625 0.75 0
2.75 0.75 0
2.625 0.875 0
2.75 0.875 0
2.625 0.875 0
2.75 0.875 0
2.625 1 0
2.75 1 0
2.5 0.875 0
2.625 0.875 0
2.5 1 0
2.625 1 0
2 0.5 0
2.125 0.5 0
2 0.625 0
2.125 0.625 0
2.125 0.5 0
2.25 0.5 0
2.125 0.625 0
2.25 0.625 0
2.125 0.625 0
2.25 0.625 0
2.125 0.75 0
2.25 0.75 0
2 0.625 0
2.125 0.625 0
2 0.75 0
2.125 0.75 0
2.25 0.5 0
2.375 0.5 0
2.25 0.625 0
2.375 0.625 0
2.375 0.5 0
2.5 0.5 0
2.375 0.625 0
2.5 0.625 0
2.375 0.625 0
2.5 0.625 0
2.375 0.75 0
2.5 0.75 0
2.25 0.625 0
2.375 0.625 0
2.25 0.75 0
2.375 0.75 0
2.25 0.75 0
2.375 0.75 0
2.25 0.875 0
2.375 0.875 0
2.375 0.75 0
2.5 0.75 0
2.375 0.875 0
2.5 0.875 0
2.375 0.875 0
2.5 0.875 0
2.375 1 0
2.5 1 0
2.25 0.875 0
2.375 0.875 0
2.25 1 0
2.375 1 0
2 0.75 0
2.125 0.75 0
2 0.875 0
2.125 0.875 0
2.125 0.75 0
2.25 0.75 0
2.125 0.875 0
2.25 0.875 0
2.125 0.875 0
2.25 0.875 0
2.125 1 0
2.25 1 0
2 0.875 0
2.125 0.875 0
2 1 0
2.125 1 0
3 0 0
3.125 0 0
3 0.125 0
3.125 0.125 0
3.125 0 0
3.25 0 0
3.125 0.125 0
3.25 0.125 0
3.125 0.125 0
3.25 0.125 0
3.125 0.25 0
3.25 0.25 0
3 0.125 0
3.125 0.125 0
3 0.25 0
3.125 0.25 0
3.25 0 0
3.375 0 0
3.25 0.125 0
3.375 0.125 0
3.375 0 0
3.5 0 0
3.375 0.125 0
3.5 0.125 0
3.375 0.125 0
3.5 0.125 0
3.375 0.25 0
3.5 0.25 0
3.25 0.125 0
3.375 0.125 0
3.25 0.25 0
3.375 0.25 0
3.25 0.25 0
3.375 0.25 0
3.25 0.375 0
3.375 0.375 0
3.375 0.25 0
3.5 0.25 0
3.375 0.375 0
3.5 0.375 0
3.375 0.375 0
3.5 0.375 0
3.375 0.5 0
3.5 0.5 0
3.25 0.375 0
3.375 0.375 0
3.25 0.5 0
[...]
<CellData Scalars="attribute">
<DataArray type="Int32" Name="attribute" format="ascii">
1
1
1
1
1
1
1
1
1
1
1
1
1
1
1
1
1
1
1
1
1
1
1
1
1
1
1
1
1
1
1
1
1
1
1
1
1
1
1
1
1
1
1
1
1
1
1
1
1
1
1
1
1
1
1
1
1
1
1
1
1
1
1
1
1
1
1
1
1
1
1
1
1
1
1
1
1
1
1
1
1
1
1
1
1
1
1
1
1
1
1
1
1
1
1
1
1
1
1
1
1
1
1
1
1
1
1
1
1
1
1
1
1
1
1
1
1
1
1
1
1
1
1
1
1
1
1
1
1
1
1
1
1
1
1
1
1
1
1
1
1
1
1
1
1
1
1
1
1
1
1
1
1
1
1
1
1
1
1
1
1
1
1
1
1
1
1
1
1
1
1
1
1
1
1
1
1
1
1
1
1
1
1
1
1
1
1
1
1
1
1
1
1
1
1
1
1
1
1
1
1
1
1
1
1
1
1
1
1
1
1
1
1
1
1
1
1
1
1
1
1
1
1
1
1
1
1
1
1
1
1
1
1
1
1
1
1
1
1
1
1
1
1
1
1
1
1
1
1
1
1
1
1
1
1
1
2
2
2
2
2
2
2
2
2
2
2
2
2
2
2
2
2
2
2
2
2
2
2
2
2
2
2
2
2
2
2
2
2
2
2
2
2
2
2
2
2
2
2
2
2
2
2
2
2
2
2
2
2
2
2
2
2
2
2
2
2
2
2
2
2
2
2
2
2
2
2
2
2
2
2
2
2
2
2
2
2
2
2
2
2
2
2
2
2
2
2
2
2
2
2
2
2
2
2
2
2
2
2
2
2
2
2
2
2
2
2
2
2
2
2
2
2
2
2
2
2
2
2
2
2
2
2
2
2
2
2
2
2
2
2
2
2
2
2
2
2
2
2
2
2
2
2
2
2
2
2
2
2
2
2
2
2
2
2
2
2
2
2
2
2
2
2
2
2
2
2
2
2
2
2
2
2
2
2
2
2
2
2
2
2
2
2
2
2
2
2
2
2
2
2
2
2
2
2
2
2
2
2
2
2
2
2
2
2
2
2
2
2
2
2
2
2
2
2
2
2
2
2
2
2
2
2
2
2
2
2
2
2
2
2
2
2
2
2
2
2
2
2
2
2
2
2
2
2
2
2
2
2
2
2
2
</DataArray>
</CellData>
<PointData >
<DataArray type="Float64" Name="Pressure" NumberOfComponents="1" format="ascii" >
-0.000698496
-1.2928e-06
-0.00114303
-2.1401e-06
-1.2928e-06
9.46448e-11
-2.1401e-06
1.63906e-10
-2.1401e-06
1.63906e-10
-1.43675e-06
1.11306e-10
-0.00114303
-2.1401e-06
-0.000762036
-1.43675e-06
9.46448e-11
-4.37122e-15
1.63906e-10
-7.80513e-15
-4.37122e-15
2.04538e-19
-7.80513e-15
3.78659e-19
-7.80513e-15
3.78659e-19
-5.43486e-15
2.70817e-19
1.63906e-10
-7.80513e-15
1.11306e-10
-5.43486e-15
1.11306e-10
-5.43486e-15
5.70413e-11
-2.77718e-15
-5.43486e-15
2.70817e-19
-2.77718e-15
1.38531e-19
-2.77718e-15
1.38531e-19
-9.1969e-17
4.39575e-21
5.70413e-11
-2.77718e-15
2.01226e-12
-9.1969e-17
-0.000762036
-1.43675e-06
-0.000381032
-7.29576e-07
-1.43675e-06
1.11306e-10
-7.29576e-07
5.70413e-11
-7.29576e-07
5.70413e-11
-1.61602e-08
2.01226e-12
-0.000381032
-7.29576e-07
-1.98827e-08
-1.61602e-08
2.04538e-19
-4.95971e-24
3.78659e-19
-9.51676e-24
-4.95971e-24
2.09018e-28
-9.51676e-24
4.03255e-28
-9.51676e-24
4.03255e-28
-7.05096e-24
3.0303e-28
3.78659e-19
-9.51676e-24
2.70817e-19
-7.05096e-24
2.09018e-28
-2.14349e-33
4.03255e-28
-4.56176e-33
-2.14349e-33
1.39234e-37
-4.56176e-33
2.72622e-37
-4.56176e-33
2.72622e-37
-3.68965e-33
2.11119e-37
4.03255e-28
-4.56176e-33
3.0303e-28
-3.68965e-33
3.0303e-28
-3.68965e-33
1.57544e-28
-1.94558e-33
-3.68965e-33
2.11119e-37
-1.94558e-33
1.12118e-37
-1.94558e-33
1.12118e-37
-5.61144e-35
2.85477e-39
1.57544e-28
-1.94558e-33
4.51932e-30
-5.61144e-35
2.70817e-19
-7.05096e-24
1.38531e-19
-3.62899e-24
-7.05096e-24
3.0303e-28
-3.62899e-24
1.57544e-28
-3.62899e-24
1.57544e-28
-1.1087e-25
4.51932e-30
1.38531e-19
-3.62899e-24
4.39575e-21
-1.1087e-25
4.39575e-21
-1.1087e-25
-1.31611e-19
3.45619e-24
-1.1087e-25
4.51932e-30
3.45619e-24
-1.50649e-28
3.45619e-24
-1.50649e-28
7.02568e-24
-3.02228e-28
-1.31611e-19
3.45619e-24
-2.69543e-19
7.02568e-24
4.51932e-30
-5.61144e-35
-1.50649e-28
1.86057e-33
-5.61144e-35
2.85477e-39
1.86057e-33
-1.07886e-37
1.86057e-33
-1.07886e-37
3.67969e-33
-2.10777e-37
-1.50649e-28
1.86057e-33
-3.02228e-28
3.67969e-33
-3.02228e-28
3.67969e-33
-4.09691e-28
4.63127e-33
3.67969e-33
-2.10777e-37
4.63127e-33
-2.76437e-37
4.63127e-33
-2.76437e-37
2.19029e-33
-1.4193e-37
-4.09691e-28
4.63127e-33
-2.13723e-28
2.19029e-33
-2.69543e-19
7.02568e-24
-3.85411e-19
9.67881e-24
7.02568e-24
-3.02228e-28
9.67881e-24
-4.09691e-28
9.67881e-24
-4.09691e-28
5.08012e-24
-2.13723e-28
-3.85411e-19
9.67881e-24
-2.09918e-19
5.08012e-24
-1.98827e-08
-1.61602e-08
0.000380999
7.03495e-07
-1.61602e-08
2.01226e-12
7.03495e-07
-5.38009e-11
7.03495e-07
-5.38009e-11
1.42939e-06
-1.10416e-10
0.000380999
7.03495e-07
0.000762026
1.42939e-06
2.01226e-12
-9.1969e-17
-5.38009e-11
2.63056e-15
-9.1969e-17
4.39575e-21
2.63056e-15
-1.31611e-19
2.63056e-15
-1.31611e-19
5.40076e-15
-2.69543e-19
-5.38009e-11
2.63056e-15
-1.10416e-10
5.40076e-15
-1.10416e-10
5.40076e-15
-1.66941e-10
7.95044e-15
5.40076e-15
-2.69543e-19
7.95044e-15
-3.85411e-19
7.95044e-15
-3.85411e-19
4.49491e-15
-2.09918e-19
-1.66941e-10
7.95044e-15
-9.77528e-11
4.49491e-15
0.000762026
1.42939e-06
0.00114306
2.16418e-06
1.42939e-06
-1.10416e-10
2.16418e-06
-1.66941e-10
2.16418e-06
-1.66941e-10
1.31832e-06
-9.77528e-11
0.00114306
2.16418e-06
0.000698527
1.31832e-06
1.39234e-37
2.48287e-43
2.72622e-37
9.77572e-44
2.48287e-43
7.30245e-47
9.77572e-44
1.41701e-46
9.77572e-44
1.41701e-46
-1.50593e-43
1.10586e-46
2.72622e-37
9.77572e-44
2.11119e-37
-1.50593e-43
7.30245e-47
7.90587e-52
1.41701e-46
1.33837e-51
7.90587e-52
3.22273e-56
1.33837e-51
6.14099e-56
1.33837e-51
6.14099e-56
9.24037e-52
4.76646e-56
1.41701e-46
1.33837e-51
1.10586e-46
9.24037e-52
1.10586e-46
9.24037e-52
5.96001e-47
4.81686e-52
9.24037e-52
4.76646e-56
4.81686e-52
2.58441e-56
4.81686e-52
2.58441e-56
8.1029e-54
4.91556e-58
5.96001e-47
4.81686e-52
1.32036e-48
8.1029e-54
2.11119e-37
-1.50593e-43
1.12118e-37
-1.03349e-43
-1.50593e-43
1.10586e-46
-1.03349e-43
5.96001e-47
-1.03349e-43
5.96001e-47
-5.96234e-45
1.32036e-48
1.12118e-37
-1.03349e-43
2.85477e-39
-5.96234e-45
3.22273e-56
4.89924e-61
6.14099e-56
8.78294e-61
4.89924e-61
1.17633e-65
8.78294e-61
2.20935e-65
8.78294e-61
2.20935e-65
6.45328e-61
1.70306e-65
6.14099e-56
8.78294e-61
4.76646e-56
6.45328e-61
1.17633e-65
1.88233e-70
2.20935e-65
3.43707e-70
1.88233e-70
3.45968e-75
3.43707e-70
6.44451e-75
3.43707e-70
6.44451e-75
2.58199e-70
4.9488e-75
2.20935e-65
3.43707e-70
1.70306e-65
2.58199e-70
1.70306e-65
2.58199e-70
9.24679e-66
1.38818e-70
2.58199e-70
4.9488e-75
1.38818e-70
2.68754e-75
1.38818e-70
2.68754e-75
1.99659e-72
3.7645e-77
9.24679e-66
1.38818e-70
1.50624e-67
1.99659e-72
4.76646e-56
6.45328e-61
2.58441e-56
3.43622e-61
6.45328e-61
1.70306e-65
3.43622e-61
9.24679e-66
3.43622e-61
9.24679e-66
5.52215e-63
1.50624e-67
2.58441e-56
3.43622e-61
4.91556e-58
5.52215e-63
4.91556e-58
5.52215e-63
-2.51366e-56
-3.35809e-61
5.52215e-63
1.50624e-67
-3.35809e-61
-9.03152e-66
-3.35809e-61
-9.03152e-66
-6.45538e-61
-1.70247e-65
-2.51366e-56
-3.35809e-61
-4.76346e-56
-6.45538e-61
1.50624e-67
1.99659e-72
-9.03152e-66
-1.35994e-70
1.99659e-72
3.7645e-77
-1.35994e-70
-2.63398e-75
-1.35994e-70
-2.63398e-75
-2.58239e-70
-4.94792e-75
-9.03152e-66
-1.35994e-70
-1.70247e-65
-2.58239e-70
-1.70247e-65
-2.58239e-70
-2.22967e-65
-3.46683e-70
-2.58239e-70
-4.94792e-75
-3.46683e-70
-6.49626e-75
-3.46683e-70
-6.49626e-75
-1.90354e-70
-3.49638e-75
-2.22967e-65
-3.46683e-70
-1.19073e-65
-1.90354e-70
-4.76346e-56
-6.45538e-61
-6.20585e-56
-8.87005e-61
-6.45538e-61
-1.70247e-65
-8.87005e-61
-2.22967e-65
-8.87005e-61
-2.22967e-65
-4.96208e-61
-1.19073e-65
-6.20585e-56
-8.87005e-61
-3.2685e-56
-4.96208e-61
2.85477e-39
-5.96234e-45
-1.07886e-37
9.40119e-44
-5.96234e-45
1.32036e-48
9.40119e-44
-5.76783e-47
9.40119e-44
-5.76783e-47
1.47586e-43
-1.10471e-46
-1.07886e-37
9.40119e-44
-2.10777e-37
1.47586e-43
1.32036e-48
8.1029e-54
-5.76783e-47
-4.70274e-52
8.1029e-54
4.91556e-58
-4.70274e-52
-2.51366e-56
-4.70274e-52
-2.51366e-56
-9.24889e-52
-4.76346e-56
-5.76783e-47
-4.70274e-52
-1.10471e-46
-9.24889e-52
-1.10471e-46
-9.24889e-52
-1.43424e-46
-1.35347e-51
-9.24889e-52
-4.76346e-56
-1.35347e-51
-6.20585e-56
-1.35347e-51
-6.20585e-56
-8.01924e-52
-3.2685e-56
-1.43424e-46
-1.35347e-51
-7.4235e-47
-8.01924e-52
-2.10777e-37
1.47586e-43
-2.76437e-37
-9.83594e-44
1.47586e-43
-1.10471e-46
-9.83594e-44
-1.43424e-46
-9.83594e-44
-1.43424e-46
-2.50777e-43
-7.4235e-47
-2.76437e-37
-9.83594e-44
-1.4193e-37
-2.50777e-43
3.45968e-75
5.25701e-80
6.44451e-75
9.66975e-80
5.25701e-80
8.14408e-85
9.66975e-80
1.51085e-84
9.66975e-80
1.51085e-84
7.34108e-80
1.15882e-84
6.44451e-75
9.66975e-80
4.9488e-75
7.34108e-80
8.14408e-85
1.13536e-89
1.51085e-84
2.09465e-89
1.13536e-89
1.54554e-94
2.09465e-89
2.86158e-94
2.09465e-89
2.86158e-94
1.59905e-89
2.19514e-94
1.51085e-84
2.09465e-89
1.15882e-84
1.59905e-89
1.15882e-84
1.59905e-89
6.29461e-85
8.66721e-90
1.59905e-89
2.19514e-94
8.66721e-90
1.19276e-94
8.66721e-90
1.19276e-94
9.63834e-92
1.25314e-96
6.29461e-85
8.66721e-90
7.62078e-87
9.63834e-92
4.9488e-75
7.34108e-80
2.68754e-75
3.96754e-80
7.34108e-80
1.15882e-84
3.96754e-80
6.29461e-85
3.96754e-80
6.29461e-85
5.03168e-82
7.62078e-87
2.68754e-75
3.96754e-80
3.7645e-77
5.03168e-82
1.54554e-94
1.96061e-99
2.86158e-94
3.62126e-99
1.96061e-99
2.39413e-104
3.62126e-99
4.42825e-104
3.62126e-99
4.42825e-104
2.77308e-99
3.39907e-104
2.86158e-94
3.62126e-99
2.19514e-94
2.77308e-99
2.39413e-104
2.76691e-109
4.42825e-104
5.1121e-109
2.76691e-109
3.06722e-114
5.1121e-109
5.6698e-114
5.1121e-109
5.6698e-114
3.92201e-109
4.35513e-114
4.42825e-104
5.1121e-109
3.39907e-104
3.92201e-109
3.39907e-104
3.92201e-109
1.84747e-104
2.13097e-109
3.92201e-109
4.35513e-114
2.13097e-109
2.36762e-114
2.13097e-109
2.36762e-114
1.81191e-111
1.88675e-116
1.84747e-104
2.13097e-109
1.68896e-106
1.81191e-111
2.19514e-94
2.77308e-99
1.19276e-94
1.50545e-99
2.77308e-99
3.39907e-104
1.50545e-99
1.84747e-104
1.50545e-99
1.84747e-104
1.46455e-101
1.68896e-106
1.19276e-94
1.50545e-99
1.25314e-96
1.46455e-101
1.25314e-96
1.46455e-101
-1.175e-94
-1.48474e-99
1.46455e-101
1.68896e-106
-1.48474e-99
-1.82356e-104
-1.48474e-99
-1.82356e-104
-2.77312e-99
-3.39898e-104
-1.175e-94
-1.48474e-99
-2.19505e-94
-2.77312e-99
1.68896e-106
1.81191e-111
-1.82356e-104
-2.10535e-109
1.81191e-111
1.88675e-116
-2.10535e-109
-2.34092e-114
-2.10535e-109
-2.34092e-114
-3.922e-109
-4.35504e-114
-1.82356e-104
-2.10535e-109
-3.39898e-104
-3.922e-109
-3.39898e-104
-3.922e-109
-4.4519e-104
-5.13765e-109
-3.922e-109
-4.35504e-114
-5.13765e-109
-5.69622e-114
-5.13765e-109
-5.69622e-114
-2.785e-109
-3.08594e-114
-4.4519e-104
-5.13765e-109
-2.41089e-104
-2.785e-109
-2.19505e-94
-2.77312e-99
-2.8791e-94
-3.64202e-99
-2.77312e-99
-3.39898e-104
-3.64202e-99
-4.4519e-104
-3.64202e-99
-4.4519e-104
-1.97531e-99
-2.41089e-104
-2.8791e-94
-3.64202e-99
-1.55796e-94
-1.97531e-99
3.7645e-77
5.03168e-82
-2.63398e-75
-3.8964e-80
5.03168e-82
7.62078e-87
-3.8964e-80
-6.18647e-85
-3.8964e-80
-6.18647e-85
-7.34165e-80
-1.15872e-84
-2.63398e-75
-3.8964e-80
-4.94792e-75
-7.34165e-80
7.62078e-87
9.63834e-92
-6.18647e-85
-8.53095e-90
9.63834e-92
1.25314e-96
-8.53095e-90
-1.175e-94
-8.53095e-90
-1.175e-94
-1.59911e-89
-2.19505e-94
-6.18647e-85
-8.53095e-90
-1.15872e-84
-1.59911e-89
-1.15872e-84
-1.59911e-89
-1.52145e-84
-2.10843e-89
-1.59911e-89
-2.19505e-94
-2.10843e-89
-2.8791e-94
-2.10843e-89
-2.8791e-94
-1.14512e-89
-1.55796e-94
-1.52145e-84
-2.10843e-89
-8.21921e-85
-1.14512e-89
-4.94792e-75
-7.34165e-80
-6.49626e-75
-9.74273e-80
-7.34165e-80
-1.15872e-84
-9.74273e-80
-1.52145e-84
-9.74273e-80
-1.52145e-84
-5.30878e-80
-8.21921e-85
-6.49626e-75
-9.74273e-80
-3.49638e-75
-5.30878e-80
3.06722e-114
3.24299e-119
5.6698e-114
5.99141e-119
3.24299e-119
3.28981e-124
5.99141e-119
6.07863e-124
5.99141e-119
6.07863e-124
4.60202e-119
4.67211e-124
5.6698e-114
5.99141e-119
4.35513e-114
4.60202e-119
3.28981e-124
3.19742e-129
6.07863e-124
5.90607e-129
3.19742e-129
2.98621e-134
5.90607e-129
5.51573e-134
5.90607e-129
5.51573e-134
4.54004e-129
4.24166e-134
6.07863e-124
5.90607e-129
4.67211e-124
4.54004e-129
4.67211e-124
4.54004e-129
2.54024e-124
2.46829e-129
4.54004e-129
4.24166e-134
2.46829e-129
2.30628e-134
2.46829e-129
2.30628e-134
1.60266e-131
1.40094e-136
2.54024e-124
2.46829e-129
1.76664e-126
1.60266e-131
4.35513e-114
4.60202e-119
2.36762e-114
2.50151e-119
4.60202e-119
4.67211e-124
2.50151e-119
2.54024e-124
2.50151e-119
2.54024e-124
1.85859e-121
1.76664e-126
2.36762e-114
2.50151e-119
1.88675e-116
1.85859e-121
2.98621e-134
2.68022e-139
5.51573e-134
4.9495e-139
2.68022e-139
2.31582e-144
4.9495e-139
4.27615e-144
4.9495e-139
4.27615e-144
3.80681e-139
3.28975e-144
5.51573e-134
4.9495e-139
4.24166e-134
3.80681e-139
2.31582e-144
1.92743e-149
4.27615e-144
3.55841e-149
1.92743e-149
1.54707e-154
3.55841e-149
2.85586e-154
3.55841e-149
2.85586e-154
2.73797e-149
2.19779e-154
4.27615e-144
3.55841e-149
3.28975e-144
2.73797e-149
3.28975e-144
2.73797e-149
1.78867e-144
1.4886e-149
2.73797e-149
2.19779e-154
1.4886e-149
1.19488e-154
1.4886e-149
1.19488e-154
7.38837e-152
5.54757e-157
1.78867e-144
1.4886e-149
9.49627e-147
7.38837e-152
4.24166e-134
3.80681e-139
2.30628e-134
2.06976e-139
3.80681e-139
3.28975e-144
2.06976e-139
1.78867e-144
2.06976e-139
1.78867e-144
1.17477e-141
9.49627e-147
2.30628e-134
2.06976e-139
1.40094e-136
1.17477e-141
1.40094e-136
1.17477e-141
-2.28645e-134
-2.05312e-139
1.17477e-141
9.49627e-147
-2.05312e-139
-1.77522e-144
-2.05312e-139
-1.77522e-144
-3.80671e-139
-3.28966e-144
-2.28645e-134
-2.05312e-139
-4.24155e-134
-3.80671e-139
9.49627e-147
7.38837e-152
-1.77522e-144
-1.47813e-149
7.38837e-152
5.54757e-157
-1.47813e-149
-1.18702e-154
-1.47813e-149
-1.18702e-154
-2.73789e-149
-2.19772e-154
-1.77522e-144
-1.47813e-149
-3.28966e-144
-2.73789e-149
-3.28966e-144
-2.73789e-149
-4.28937e-144
-3.56868e-149
-2.73789e-149
-2.19772e-154
-3.56868e-149
-2.86355e-154
-3.56868e-149
-2.86355e-154
-1.9347e-149
-1.55252e-154
-4.28937e-144
-3.56868e-149
-2.32518e-144
-1.9347e-149
-4.24155e-134
-3.80671e-139
-5.53528e-134
-4.96589e-139
-3.80671e-139
-3.28966e-144
-4.96589e-139
-4.28937e-144
-4.96589e-139
-4.28937e-144
-2.69183e-139
-2.32518e-144
-5.53528e-134
-4.96589e-139
-3.00006e-134
-2.69183e-139
1.88675e-116
1.85859e-121
-2.34092e-114
-2.47522e-119
1.85859e-121
1.76664e-126
-2.47522e-119
-2.51524e-124
-2.47522e-119
-2.51524e-124
-4.60197e-119
-4.67201e-124
-2.34092e-114
-2.47522e-119
-4.35504e-114
-4.60197e-119
1.76664e-126
1.60266e-131
-2.51524e-124
-2.44561e-129
1.60266e-131
1.40094e-136
-2.44561e-129
-2.28645e-134
-2.44561e-129
-2.28645e-134
-4.53995e-129
-4.24155e-134
-2.51524e-124
-2.44561e-129
-4.67201e-124
-4.53995e-129
-4.67201e-124
-4.53995e-129
-6.10334e-124
-5.9285e-129
-4.53995e-129
-4.24155e-134
-5.9285e-129
-5.53528e-134
-5.9285e-129
-5.53528e-134
-3.2133e-129
-3.00006e-134
-6.10334e-124
-5.9285e-129
-3.30731e-124
-3.2133e-129
-4.35504e-114
-4.60197e-119
-5.69622e-114
-6.01751e-119
-4.60197e-119
-4.67201e-124
-6.01751e-119
-6.10334e-124
-6.01751e-119
-6.10334e-124
-3.26146e-119
-3.30731e-124
-5.69622e-114
-6.01751e-119
-3.08594e-114
-3.26146e-119
1.54707e-154
1.19842e-159
2.85586e-154
2.21195e-159
1.19842e-159
8.96758e-165
2.21195e-159
1.65498e-164
2.21195e-159
1.65498e-164
1.70247e-159
1.27395e-164
2.85586e-154
2.21195e-159
2.19779e-154
1.70247e-159
8.96758e-165
6.48657e-170
1.65498e-164
1.19696e-169
6.48657e-170
4.53899e-175
1.19696e-169
8.37484e-175
1.19696e-169
8.37484e-175
9.21472e-170
6.44794e-175
1.65498e-164
1.19696e-169
1.27395e-164
9.21472e-170
1.27395e-164
9.21472e-170
6.92553e-165
5.00912e-170
9.21472e-170
6.44794e-175
5.00912e-170
3.50494e-175
5.00912e-170
3.50494e-175
1.90352e-172
1.2463e-177
6.92553e-165
5.00912e-170
2.81322e-167
1.90352e-172
2.19779e-154
1.70247e-159
1.19488e-154
9.25546e-160
1.70247e-159
1.27395e-164
9.25546e-160
6.92553e-165
9.25546e-160
6.92553e-165
4.01869e-162
2.81322e-167
1.19488e-154
9.25546e-160
5.54757e-157
4.01869e-162
4.53899e-175
3.07462e-180
8.37484e-175
5.67233e-180
3.07462e-180
2.01741e-185
5.67233e-180
3.72154e-185
5.67233e-180
3.72154e-185
4.36759e-180
2.86573e-185
8.37484e-175
5.67233e-180
6.44794e-175
4.36759e-180
2.01741e-185
1.283e-190
3.72154e-185
2.36654e-190
1.283e-190
7.91291e-196
2.36654e-190
1.45943e-195
2.36654e-190
1.45943e-195
1.82245e-190
1.12396e-195
3.72154e-185
2.36654e-190
2.86573e-185
1.82245e-190
2.86573e-185
1.82245e-190
1.55758e-185
9.90485e-191
1.82245e-190
1.12396e-195
9.90485e-191
6.10835e-196
9.90485e-191
6.10835e-196
2.88737e-193
1.66704e-198
1.55758e-185
9.90485e-191
4.85078e-188
2.88737e-193
6.44794e-175
4.36759e-180
3.50494e-175
2.37399e-180
4.36759e-180
2.86573e-185
2.37399e-180
1.55758e-185
2.37399e-180
1.55758e-185
7.89932e-183
4.85078e-188
3.50494e-175
2.37399e-180
1.2463e-177
7.89932e-183
1.2463e-177
7.89932e-183
-3.48724e-175
-2.36277e-180
7.89932e-183
4.85078e-188
-2.36277e-180
-1.55069e-185
-2.36277e-180
-1.55069e-185
-4.36741e-180
-2.86561e-185
-3.48724e-175
-2.36277e-180
-6.44769e-175
-4.36741e-180
4.85078e-188
2.88737e-193
-1.55069e-185
-9.86379e-191
2.88737e-193
1.66704e-198
-9.86379e-191
-6.08463e-196
-9.86379e-191
-6.08463e-196
-1.82237e-190
-1.12391e-195
-1.55069e-185
-9.86379e-191
-2.86561e-185
-1.82237e-190
-2.86561e-185
-1.82237e-190
-3.72817e-185
-2.37047e-190
-1.82237e-190
-1.12391e-195
-2.37047e-190
-1.4617e-195
-2.37047e-190
-1.4617e-195
-1.28579e-190
-7.92896e-196
-3.72817e-185
-2.37047e-190
-2.02211e-185
-1.28579e-190
-6.44769e-175
-4.36741e-180
-8.39198e-175
-5.68317e-180
-4.36741e-180
-2.86561e-185
-5.68317e-180
-3.72817e-185
-5.68317e-180
-3.72817e-185
-3.08229e-180
-2.02211e-185
-8.39198e-175
-5.68317e-180
-4.55112e-175
-3.08229e-180
5.54757e-157
4.01869e-162
-1.18702e-154
-9.19847e-160
4.01869e-162
2.81322e-167
-9.19847e-160
-6.88562e-165
-9.19847e-160
-6.88562e-165
-1.70241e-159
-1.2739e-164
-1.18702e-154
-9.19847e-160
-2.19772e-154
-1.70241e-159
2.81322e-167
1.90352e-172
-6.88562e-165
-4.98211e-170
1.90352e-172
1.2463e-177
-4.98211e-170
-3.48724e-175
-4.98211e-170
-3.48724e-175
-9.21437e-170
-6.44769e-175
-6.88562e-165
-4.98211e-170
-1.2739e-164
-9.21437e-170
-1.2739e-164
-9.21437e-170
-1.65886e-164
-1.19958e-169
-9.21437e-170
-6.44769e-175
-1.19958e-169
-8.39198e-175
-1.19958e-169
-8.39198e-175
-6.50515e-170
-4.55112e-175
-1.65886e-164
-1.19958e-169
-8.9951e-165
-6.50515e-170
-2.19772e-154
-1.70241e-159
-2.86355e-154
-2.21752e-159
-1.70241e-159
-1.2739e-164
-2.21752e-159
-1.65886e-164
-2.21752e-159
-1.65886e-164
-1.20236e-159
-8.9951e-165
-2.86355e-154
-2.21752e-159
-1.55252e-154
-1.20236e-159
7.91291e-196
4.73536e-201
1.45943e-195
8.73299e-201
4.73536e-201
2.75104e-206
8.73299e-201
5.07308e-206
8.73299e-201
5.07308e-206
6.72596e-201
3.90737e-206
1.45943e-195
8.73299e-201
1.12396e-195
6.72596e-201
2.75104e-206
1.55229e-211
5.07308e-206
2.8623e-211
1.55229e-211
8.51091e-217
2.8623e-211
1.56924e-216
2.8623e-211
1.56924e-216
2.20469e-211
1.20875e-216
5.07308e-206
2.8623e-211
3.90737e-206
2.20469e-211
3.90737e-206
2.20469e-211
2.12332e-206
1.19801e-211
2.20469e-211
1.20875e-216
1.19801e-211
6.56798e-217
1.19801e-211
6.56798e-217
2.68518e-214
1.3791e-219
2.12332e-206
1.19801e-211
5.08115e-209
2.68518e-214
1.12396e-195
6.72596e-201
6.10835e-196
3.65516e-201
6.72596e-201
3.90737e-206
3.65516e-201
2.12332e-206
3.65516e-201
2.12332e-206
9.34011e-204
5.08115e-209
6.10835e-196
3.65516e-201
1.66704e-198
9.34011e-204
8.51091e-217
4.53619e-222
1.56924e-216
8.36324e-222
4.53619e-222
2.35121e-227
8.36324e-222
4.33458e-227
8.36324e-222
4.33458e-227
6.44228e-222
3.33908e-227
1.56924e-216
8.36324e-222
1.20875e-216
6.44228e-222
2.35121e-227
1.1856e-232
4.33458e-227
2.18559e-232
1.1856e-232
5.81819e-238
2.18559e-232
1.07249e-237
2.18559e-232
1.07249e-237
1.68369e-232
8.26228e-238
4.33458e-227
2.18559e-232
3.33908e-227
1.68369e-232
3.33908e-227
1.68369e-232
1.8142e-227
9.14756e-233
1.68369e-232
8.26228e-238
9.14756e-233
4.48878e-238
9.14756e-233
4.48878e-238
1.58094e-235
7.27347e-241
1.8142e-227
9.14756e-233
3.34497e-230
1.58094e-235
1.20875e-216
6.44228e-222
6.56798e-217
3.50038e-222
6.44228e-222
3.33908e-227
3.50038e-222
1.8142e-227
3.50038e-222
1.8142e-227
6.88663e-225
3.34497e-230
6.56798e-217
3.50038e-222
1.3791e-219
6.88663e-225
1.3791e-219
6.88663e-225
-6.5483e-217
-3.49055e-222
6.88663e-225
3.34497e-230
-3.49055e-222
-1.80942e-227
-3.49055e-222
-1.80942e-227
-6.44196e-222
-3.33891e-227
-6.5483e-217
-3.49055e-222
-1.20869e-216
-6.44196e-222
3.34497e-230
1.58094e-235
-1.80942e-227
-9.12494e-233
1.58094e-235
7.27347e-241
-9.12494e-233
-4.47836e-238
-9.12494e-233
-4.47836e-238
-1.6836e-232
-8.26184e-238
-1.80942e-227
-9.12494e-233
-3.33891e-227
-1.6836e-232
-3.33891e-227
-1.6836e-232
-4.33902e-227
-2.18768e-232
-1.6836e-232
-8.26184e-238
-2.18768e-232
-1.07345e-237
-2.18768e-232
-1.07345e-237
-1.18708e-232
-5.82495e-238
-4.33902e-227
-2.18768e-232
-2.35435e-227
-1.18708e-232
-1.20869e-216
-6.44196e-222